/global/cfs/cdirs/m4010/linqingp/holmium/paper_final/vasp/ErCO34/MM/k111_AFM
Fri 14 Mar 2025 02:14:30 PM PDT
nid008541
 running    4 mpi-ranks, with   16 threads/rank, on    1 nodes
 distrk:  each k-point on    4 cores,    1 groups
 distr:  one band on    1 cores,    4 groups
 OpenACC runtime initialized ...    4 GPUs detected
 vasp.6.4.2 20Jul23 (build Feb  3 2025 11:36:47) gamma-only                      
 POSCAR found type information on POSCAR ErO N H C 
 POSCAR found :  5 types and     312 ions
 Reading from existing POTCAR
 scaLAPACK will be used selectively (only on CPU)
 Reading from existing POTCAR
 -----------------------------------------------------------------------------
|                                                                             |
|               ----> ADVICE to this user running VASP <----                  |
|                                                                             |
|     You have a (more or less) 'large supercell' and for larger cells it     |
|     might be more efficient to use real-space projection operators.         |
|     Therefore, try LREAL= Auto in the INCAR file.                           |
|     Mind: For very accurate calculation, you might also keep the            |
|     reciprocal projection scheme (i.e. LREAL=.FALSE.).                      |
|                                                                             |
 -----------------------------------------------------------------------------

 LDA part: xc-table for Pade appr. of Perdew
 POSCAR found type information on POSCAR ErO N H C 
 POSCAR found :  5 types and     312 ions
 POSCAR, INCAR and KPOINTS ok, starting setup
 FFT: planning ... GRIDC
 FFT: planning ... GRID_SOFT
 FFT: planning ... GRID
 WAVECAR not read
 augmentation electrons    1203.911689676745     
 soft         electrons    0.000000000000000     
 total        electrons    1203.911689676745     
 augmentation electrons  -1.4658725211487750E-008
 soft         electrons    0.000000000000000     
 total        electrons  -1.4658725211487750E-008
 augmentation electrons    540.7166070773782     
 soft         electrons    0.000000000000000     
 total        electrons    540.7166070773782     
 augmentation electrons    536.7387166081782     
 soft         electrons    0.000000000000000     
 total        electrons    536.7387166081782     
 entering main loop
       N       E                     dE             d eps       ncg     rms          rms(c)
DAV:   1     0.237497548248E+05    0.23750E+05   -0.43012E+05  5992   0.283E+03
DAV:   2     0.629125387536E+04   -0.17459E+05   -0.15134E+05  5920   0.897E+02
DAV:   3    -0.313002729449E+03   -0.66043E+04   -0.59524E+04  5728   0.380E+02
DAV:   4    -0.178075742216E+04   -0.14678E+04   -0.12692E+04  5296   0.183E+02
DAV:   5    -0.193794902657E+04   -0.15719E+03   -0.14063E+03  5296   0.656E+01
DAV:   6    -0.194855695461E+04   -0.10608E+02   -0.10205E+02  5760   0.225E+01
DAV:   7    -0.195012138982E+04   -0.15644E+01   -0.15518E+01  6072   0.883E+00
DAV:   8    -0.195040530169E+04   -0.28391E+00   -0.28317E+00  5840   0.470E+00    0.236E+02
DAV:   9    -0.438196710425E+04   -0.24316E+04   -0.25708E+03  5016   0.367E+02    0.108E+04
DAV:  10    -0.479826890332E+04   -0.41630E+03   -0.39824E+03  4992   0.645E+01    0.181E+04
DAV:  11    -0.484311981012E+04   -0.44851E+02   -0.10118E+03  5080   0.399E+01    0.188E+04
DAV:  12    -0.486678629469E+04   -0.23666E+02   -0.30451E+02  4528   0.213E+01    0.219E+04
DAV:  13    -0.478469574100E+04    0.82091E+02   -0.30388E+01  5032   0.898E+00    0.224E+04
DAV:  14    -0.477670680084E+04    0.79889E+01   -0.24639E+00  4800   0.240E+00    0.223E+04
DAV:  15    -0.468470637607E+04    0.92000E+02   -0.72238E+01  4480   0.598E+00    0.214E+04
DAV:  16    -0.463217585041E+04    0.52531E+02   -0.35086E+02  4704   0.222E+01    0.196E+04
DAV:  17    -0.385244059423E+04    0.77974E+03   -0.78862E+02  5128   0.610E+01    0.130E+04
DAV:  18    -0.329277118825E+04    0.55967E+03   -0.52232E+02  5096   0.396E+01    0.941E+03
DAV:  19    -0.266798267891E+04    0.62479E+03   -0.53125E+02  4968   0.527E+01    0.572E+03
DAV:  20    -0.215981865655E+04    0.50816E+03   -0.60073E+02  5136   0.382E+01    0.258E+03
DAV:  21    -0.189717097409E+04    0.26265E+03   -0.12852E+02  5280   0.589E+01    0.239E+03
DAV:  22    -0.179194361777E+04    0.10523E+03   -0.11112E+02  5760   0.303E+01    0.147E+03
DAV:  23    -0.176241566778E+04    0.29528E+02   -0.81264E+01  5584   0.757E+01    0.686E+02
DAV:  24    -0.168860836571E+04    0.73807E+02   -0.44392E+01  5440   0.250E+01    0.367E+02
DAV:  25    -0.174768561667E+04   -0.59077E+02   -0.67567E+01  5192   0.601E+01    0.281E+02
DAV:  26    -0.176174462257E+04   -0.14059E+02   -0.45708E+01  5184   0.207E+01    0.328E+02
DAV:  27    -0.175863773684E+04    0.31069E+01   -0.21677E+01  5376   0.307E+01    0.344E+02
DAV:  28    -0.174728099753E+04    0.11357E+02   -0.29677E+01  5232   0.173E+01    0.255E+02
DAV:  29    -0.174239403908E+04    0.48870E+01   -0.28523E+01  5264   0.486E+01    0.335E+02
DAV:  30    -0.173626450169E+04    0.61295E+01   -0.11584E+01  5088   0.587E+00    0.291E+02
DAV:  31    -0.172863302983E+04    0.76315E+01   -0.35195E+00  5184   0.286E+00    0.289E+02
DAV:  32    -0.172793204476E+04    0.70099E+00   -0.77147E-01  5016   0.154E+00    0.300E+02
DAV:  33    -0.171944201523E+04    0.84900E+01   -0.53489E+00  5040   0.986E+00    0.311E+02
DAV:  34    -0.169739966198E+04    0.22042E+02   -0.26913E+01  4848   0.249E+01    0.337E+02
DAV:  35    -0.169860772663E+04   -0.12081E+01   -0.19907E+01  5112   0.118E+01    0.362E+02
DAV:  36    -0.171255309966E+04   -0.13945E+02   -0.15470E+01  4888   0.951E+00    0.384E+02
DAV:  37    -0.169419305433E+04    0.18360E+02   -0.14712E+01  5064   0.513E+00    0.379E+02
DAV:  38    -0.169093929501E+04    0.32538E+01   -0.17734E+00  5136   0.493E+00    0.376E+02
DAV:  39    -0.169072607469E+04    0.21322E+00   -0.18661E+00  5296   0.234E+00    0.354E+02
DAV:  40    -0.168977931703E+04    0.94676E+00   -0.51546E-01  5272   0.198E+00    0.349E+02
DAV:  41    -0.168719990026E+04    0.25794E+01   -0.28421E+00  4944   0.161E+00    0.348E+02
DAV:  42    -0.168570494260E+04    0.14950E+01   -0.21158E+00  4840   0.235E+00    0.341E+02
DAV:  43    -0.168566222362E+04    0.42719E-01   -0.78563E-01  4088   0.111E+00    0.340E+02
DAV:  44    -0.168634250202E+04   -0.68028E+00   -0.26425E-01  5016   0.774E-01    0.342E+02
DAV:  45    -0.168595823980E+04    0.38426E+00   -0.10871E-01  4192   0.478E-01    0.342E+02
DAV:  46    -0.168776317043E+04   -0.18049E+01   -0.15317E+00  4824   0.177E+00    0.344E+02
DAV:  47    -0.168795896603E+04   -0.19580E+00   -0.24536E-01  3744   0.771E-01    0.344E+02
DAV:  48    -0.168750249094E+04    0.45648E+00   -0.94754E-01  4552   0.102E+00    0.343E+02
DAV:  49    -0.168816461751E+04   -0.66213E+00   -0.87243E-01  4280   0.144E+00    0.345E+02
DAV:  50    -0.168915917791E+04   -0.99456E+00   -0.19154E+00  4640   0.244E+00    0.344E+02
DAV:  51    -0.168878795154E+04    0.37123E+00   -0.13290E+00  4600   0.194E+00    0.347E+02
DAV:  52    -0.169142208430E+04   -0.26341E+01   -0.13182E+00  4704   0.137E+00    0.348E+02
DAV:  53    -0.168863728794E+04    0.27848E+01   -0.99753E-01  4832   0.178E+00    0.347E+02
DAV:  54    -0.193305096887E+04   -0.24441E+03   -0.10520E+02  4632   0.187E+02    0.290E+02
DAV:  55    -0.175383238232E+04    0.17922E+03   -0.43798E+01  5256   0.378E+01    0.369E+02
DAV:  56    -0.182428903644E+04   -0.70457E+02   -0.79890E+01  5024   0.324E+01    0.492E+02
DAV:  57    -0.183392475949E+04   -0.96357E+01   -0.36141E+01  5344   0.179E+01    0.524E+02
DAV:  58    -0.183245166214E+04    0.14731E+01   -0.26191E+01  4792   0.103E+01    0.532E+02
DAV:  59    -0.175585383958E+04    0.76598E+02   -0.16656E+02  4872   0.119E+02    0.306E+02
DAV:  60    -0.173978508364E+04    0.16069E+02   -0.93510E+01  5552   0.904E+01    0.211E+02
DAV:  61    -0.176510553754E+04   -0.25320E+02   -0.71001E+01  4944   0.168E+01    0.192E+02
DAV:  62    -0.173569682530E+04    0.29409E+02   -0.27019E+01  5320   0.133E+01    0.180E+02
DAV:  63    -0.172473089033E+04    0.10966E+02   -0.31384E+01  5120   0.129E+01    0.175E+02
DAV:  64    -0.170524775330E+04    0.19483E+02   -0.12946E+02  4424   0.194E+01    0.136E+02
DAV:  65    -0.167618942553E+04    0.29058E+02   -0.52799E+01  5072   0.133E+01    0.120E+02
DAV:  66    -0.163213565973E+04    0.44054E+02   -0.38742E+01  5144   0.178E+01    0.138E+02
DAV:  67    -0.162983453159E+04    0.23011E+01   -0.10223E+02  5256   0.204E+01    0.127E+02
DAV:  68    -0.163320082304E+04   -0.33663E+01   -0.72457E+01  5184   0.142E+01    0.124E+02
DAV:  69    -0.164265130608E+04   -0.94505E+01   -0.24533E+01  4872   0.137E+01    0.128E+02
DAV:  70    -0.161195522957E+04    0.30696E+02   -0.25552E+01  4936   0.170E+01    0.130E+02
DAV:  71    -0.160205286812E+04    0.99024E+01   -0.98561E+00  5296   0.138E+01    0.133E+02
DAV:  72    -0.158340292769E+04    0.18650E+02   -0.18036E+01  4936   0.760E+00    0.140E+02
DAV:  73    -0.156751846136E+04    0.15884E+02   -0.93250E+00  5424   0.893E+00    0.117E+02
DAV:  74    -0.159105045836E+04   -0.23532E+02   -0.38388E+01  4768   0.300E+01    0.123E+02
DAV:  75    -0.154981730946E+04    0.41233E+02   -0.42892E+01  5008   0.197E+01    0.110E+02
DAV:  76    -0.153208231489E+04    0.17735E+02   -0.10991E+01  5024   0.124E+01    0.104E+02
DAV:  77    -0.152515997990E+04    0.69223E+01   -0.86558E+00  5040   0.126E+01    0.102E+02
DAV:  78    -0.151212479135E+04    0.13035E+02   -0.83914E+00  5024   0.140E+01    0.107E+02
DAV:  79    -0.147391279334E+04    0.38212E+02   -0.25208E+01  4480   0.213E+01    0.102E+02
DAV:  80    -0.140401879887E+04    0.69894E+02   -0.35250E+01  4496   0.226E+01    0.959E+01
DAV:  81    -0.136856906215E+04    0.35450E+02   -0.14305E+01  5504   0.108E+01    0.947E+01
DAV:  82    -0.134265839612E+04    0.25911E+02   -0.70115E+00  4976   0.619E+00    0.968E+01
DAV:  83    -0.130773402308E+04    0.34924E+02   -0.70341E+00  5096   0.876E+00    0.995E+01
DAV:  84    -0.129768894253E+04    0.10045E+02   -0.15520E+01  4544   0.918E+00    0.106E+02
DAV:  85    -0.125259297826E+04    0.45096E+02   -0.19325E+01  5016   0.812E+00    0.100E+02
DAV:  86    -0.122962735158E+04    0.22966E+02   -0.13688E+01  4792   0.771E+00    0.106E+02
DAV:  87    -0.120276875623E+04    0.26859E+02   -0.68864E+00  4616   0.615E+00    0.109E+02
DAV:  88    -0.114444206378E+04    0.58327E+02   -0.21485E+01  4160   0.527E+00    0.110E+02
DAV:  89    -0.159583382713E+04   -0.45139E+03   -0.68334E+02  3840   0.443E+01    0.181E+02
DAV:  90    -0.160612408030E+04   -0.10290E+02   -0.93254E+01  5488   0.712E+01    0.159E+02
DAV:  91    -0.157179014897E+04    0.34334E+02   -0.57167E+01  5144   0.168E+01    0.148E+02
DAV:  92    -0.157314023887E+04   -0.13501E+01   -0.15417E+01  5288   0.751E+00    0.119E+02
DAV:  93    -0.157867350333E+04   -0.55333E+01   -0.40515E+00  4904   0.606E+00    0.110E+02
DAV:  94    -0.166051279584E+04   -0.81839E+02   -0.67147E+01  4400   0.196E+01    0.141E+02
DAV:  95    -0.164559685610E+04    0.14916E+02   -0.17009E+01  5432   0.218E+01    0.100E+02
DAV:  96    -0.164965888986E+04   -0.40620E+01   -0.14663E+01  5264   0.163E+01    0.987E+01
DAV:  97    -0.165428602415E+04   -0.46271E+01   -0.20165E+01  4928   0.207E+01    0.941E+01
DAV:  98    -0.165455657778E+04   -0.27055E+00   -0.49577E+00  5416   0.109E+01    0.108E+02
DAV:  99    -0.165509106442E+04   -0.53449E+00   -0.45376E+00  5152   0.131E+01    0.716E+01
DAV: 100    -0.165778482256E+04   -0.26938E+01   -0.29443E+00  4728   0.526E+00    0.698E+01
DAV: 101    -0.166116639303E+04   -0.33816E+01   -0.53471E+00  4720   0.411E+00    0.745E+01
DAV: 102    -0.166346420599E+04   -0.22978E+01   -0.16255E+00  4824   0.596E+00    0.799E+01
DAV: 103    -0.166320142374E+04    0.26278E+00   -0.96503E-01  5056   0.496E+00    0.804E+01
DAV: 104    -0.167085768141E+04   -0.76563E+01   -0.10841E+01  4608   0.125E+01    0.910E+01
DAV: 105    -0.166791153793E+04    0.29461E+01   -0.34165E+00  5344   0.376E+00    0.775E+01
DAV: 106    -0.166764508327E+04    0.26645E+00   -0.21443E+00  5072   0.332E+00    0.758E+01
DAV: 107    -0.166746749728E+04    0.17759E+00   -0.10125E+01  4768   0.379E+00    0.701E+01
DAV: 108    -0.166931623205E+04   -0.18487E+01   -0.19264E+00  4504   0.320E+00    0.717E+01
DAV: 109    -0.167578630258E+04   -0.64701E+01   -0.20897E+01  5048   0.141E+01    0.880E+01
DAV: 110    -0.166862633674E+04    0.71600E+01   -0.11024E+01  5016   0.104E+01    0.835E+01
DAV: 111    -0.166931706026E+04   -0.69072E+00   -0.33425E+00  4880   0.707E+00    0.677E+01
DAV: 112    -0.166897546412E+04    0.34160E+00   -0.72535E-01  5176   0.270E+00    0.624E+01
DAV: 113    -0.166899838703E+04   -0.22923E-01   -0.41292E-01  5272   0.168E+00    0.664E+01
DAV: 114    -0.167224265138E+04   -0.32443E+01   -0.42982E+00  4864   0.802E+00    0.742E+01
DAV: 115    -0.167032042790E+04    0.19222E+01   -0.13932E+00  4384   0.263E+00    0.713E+01
DAV: 116    -0.167199119368E+04   -0.16708E+01   -0.35066E+00  4712   0.382E+00    0.704E+01
DAV: 117    -0.167151885278E+04    0.47234E+00   -0.33685E+00  4816   0.378E+00    0.721E+01
DAV: 118    -0.167247767967E+04   -0.95883E+00   -0.91539E-01  4768   0.220E+00    0.716E+01
DAV: 119    -0.167279141276E+04   -0.31373E+00   -0.34328E+00  4848   0.109E+01    0.653E+01
DAV: 120    -0.167301142355E+04   -0.22001E+00   -0.19621E+00  5024   0.349E+00    0.642E+01
DAV: 121    -0.167208532096E+04    0.92610E+00   -0.53091E-01  5128   0.317E+00    0.676E+01
DAV: 122    -0.167233989100E+04   -0.25457E+00   -0.31913E-01  4904   0.155E+00    0.647E+01
DAV: 123    -0.167259800639E+04   -0.25812E+00   -0.11961E-01  5152   0.923E-01    0.639E+01
DAV: 124    -0.167369300919E+04   -0.10950E+01   -0.70990E-01  4600   0.477E+00    0.660E+01
DAV: 125    -0.167423979894E+04   -0.54679E+00   -0.72957E-01  5008   0.262E+00    0.658E+01
DAV: 126    -0.167466112190E+04   -0.42132E+00   -0.23231E-01  5088   0.145E+00    0.618E+01
DAV: 127    -0.167474028508E+04   -0.79163E-01   -0.67471E-02  5264   0.149E+00    0.616E+01
DAV: 128    -0.167467341562E+04    0.66869E-01   -0.82154E-02  5064   0.499E-01    0.613E+01
DAV: 129    -0.167408845591E+04    0.58496E+00   -0.38263E-01  4632   0.517E+00    0.601E+01
DAV: 130    -0.167441309419E+04   -0.32464E+00   -0.26226E-01  5000   0.106E+00    0.588E+01
DAV: 131    -0.167421625024E+04    0.19684E+00   -0.75373E-02  5216   0.988E-01    0.616E+01
DAV: 132    -0.167414277208E+04    0.73478E-01   -0.59061E-02  4832   0.128E+00    0.624E+01
DAV: 133    -0.167416377614E+04   -0.21004E-01   -0.30037E-01  4800   0.197E+00    0.639E+01
DAV: 134    -0.167330671247E+04    0.85706E+00   -0.35328E+00  4328   0.172E+01    0.786E+01
DAV: 135    -0.167380450052E+04   -0.49779E+00   -0.29751E+00  4984   0.532E+00    0.743E+01
DAV: 136    -0.167425597193E+04   -0.45147E+00   -0.22844E+00  4520   0.458E+00    0.779E+01
DAV: 137    -0.167433964561E+04   -0.83674E-01   -0.74396E-01  5216   0.153E+00    0.777E+01
DAV: 138    -0.167396660835E+04    0.37304E+00   -0.25290E-01  5112   0.139E+00    0.784E+01
DAV: 139    -0.167362004144E+04    0.34657E+00   -0.43020E+01  4400   0.578E+01    0.168E+02
DAV: 140    -0.167827445872E+04   -0.46544E+01   -0.76421E+00  5248   0.189E+01    0.134E+02
DAV: 141    -0.167380267968E+04    0.44718E+01   -0.53658E+00  4696   0.326E+01    0.767E+01
DAV: 142    -0.167512813554E+04   -0.13255E+01   -0.22602E+00  5016   0.357E+00    0.758E+01
DAV: 143    -0.167467330325E+04    0.45483E+00   -0.65788E-01  5352   0.366E+00    0.676E+01
DAV: 144    -0.167511190117E+04   -0.43860E+00   -0.52814E+00  4632   0.152E+01    0.587E+01
DAV: 145    -0.167570579289E+04   -0.59389E+00   -0.17421E+00  5056   0.314E+00    0.525E+01
DAV: 146    -0.167590431744E+04   -0.19852E+00   -0.45809E+00  4968   0.638E+00    0.565E+01
DAV: 147    -0.167557856342E+04    0.32575E+00   -0.56073E-01  5056   0.384E+00    0.561E+01
DAV: 148    -0.167555636323E+04    0.22200E-01   -0.31269E-01  5488   0.114E+00    0.566E+01
DAV: 149    -0.167535421024E+04    0.20215E+00   -0.18156E+00  4640   0.433E+00    0.552E+01
DAV: 150    -0.167552435431E+04   -0.17014E+00   -0.81464E-01  4952   0.448E+00    0.617E+01
DAV: 151    -0.167539063640E+04    0.13372E+00   -0.13604E-01  4760   0.856E-01    0.632E+01
DAV: 152    -0.167530182213E+04    0.88814E-01   -0.41560E-02  5496   0.372E-01    0.591E+01
DAV: 153    -0.167551304710E+04   -0.21122E+00   -0.69206E-02  4840   0.122E+00    0.592E+01
DAV: 154    -0.168986893355E+04   -0.14356E+02   -0.14038E+01  4576   0.368E+01    0.109E+02
DAV: 155    -0.168716245828E+04    0.27065E+01   -0.15204E+00  4688   0.352E+00    0.110E+02
DAV: 156    -0.168783076621E+04   -0.66831E+00   -0.42736E-01  5400   0.271E+00    0.108E+02
DAV: 157    -0.169036083623E+04   -0.25301E+01   -0.46959E-01  5128   0.441E+00    0.109E+02
DAV: 158    -0.169087241566E+04   -0.51158E+00   -0.21678E-01  4984   0.130E+00    0.109E+02
DAV: 159    -0.168673997016E+04    0.41324E+01   -0.73081E+00  4448   0.731E+00    0.112E+02
DAV: 160    -0.168511151198E+04    0.16285E+01   -0.41459E+00  5136   0.254E+00    0.110E+02
DAV: 161    -0.168494774791E+04    0.16376E+00   -0.44882E-01  4912   0.221E+00    0.111E+02
DAV: 162    -0.168540063978E+04   -0.45289E+00   -0.22882E-01  4944   0.838E-01    0.110E+02
DAV: 163    -0.168501121628E+04    0.38942E+00   -0.38970E-01  4728   0.126E+00    0.108E+02
DAV: 164    -0.168890947713E+04   -0.38983E+01   -0.18705E+00  4456   0.411E+00    0.110E+02
DAV: 165    -0.168854842126E+04    0.36106E+00   -0.10088E+00  4984   0.280E+00    0.110E+02
DAV: 166    -0.168898295847E+04   -0.43454E+00   -0.24304E+00  4464   0.167E+00    0.112E+02
DAV: 167    -0.168836541431E+04    0.61754E+00   -0.29532E+00  4216   0.170E+00    0.111E+02
DAV: 168    -0.168956291077E+04   -0.11975E+01   -0.95472E-01  4352   0.117E+00    0.110E+02
DAV: 169    -0.168904870591E+04    0.51420E+00   -0.14782E+00  4632   0.215E+00    0.112E+02
DAV: 170    -0.168877320106E+04    0.27550E+00   -0.39824E-01  4704   0.123E+00    0.111E+02
DAV: 171    -0.168881940430E+04   -0.46203E-01   -0.71292E-02  4776   0.432E-01    0.111E+02
DAV: 172    -0.168921238439E+04   -0.39298E+00   -0.15882E-01  4768   0.121E+00    0.110E+02
DAV: 173    -0.168933910229E+04   -0.12672E+00   -0.50420E-02  4608   0.354E-01    0.111E+02
DAV: 174    -0.169453627513E+04   -0.51972E+01   -0.29922E+00  4504   0.116E+01    0.112E+02
DAV: 175    -0.168828678820E+04    0.62495E+01   -0.42464E+00  5112   0.697E+00    0.111E+02
DAV: 176    -0.168978270119E+04   -0.14959E+01   -0.16683E+00  4616   0.404E+00    0.108E+02
DAV: 177    -0.168965462732E+04    0.12807E+00   -0.80530E-01  4976   0.298E+00    0.110E+02
DAV: 178    -0.168884130595E+04    0.81332E+00   -0.20320E-01  4816   0.134E+00    0.110E+02
DAV: 179    -0.168682915335E+04    0.20122E+01   -0.74053E-01  4880   0.634E+00    0.109E+02
DAV: 180    -0.168571745656E+04    0.11117E+01   -0.43699E-01  5192   0.309E+00    0.109E+02
DAV: 181    -0.168416190142E+04    0.15556E+01   -0.74234E-01  4736   0.392E+00    0.108E+02
DAV: 182    -0.168118638217E+04    0.29755E+01   -0.23205E+00  4312   0.371E+00    0.110E+02
DAV: 183    -0.166713482633E+04    0.14052E+02   -0.14928E+01  4176   0.916E+00    0.106E+02
DAV: 184    -0.166952361845E+04   -0.23888E+01   -0.71608E+00  5192   0.154E+01    0.759E+01
DAV: 185    -0.166727161725E+04    0.22520E+01   -0.84253E+00  5048   0.826E+00    0.705E+01
DAV: 186    -0.166761427979E+04   -0.34266E+00   -0.97298E-01  5144   0.436E+00    0.750E+01
DAV: 187    -0.166783768728E+04   -0.22341E+00   -0.57968E-01  5400   0.148E+00    0.762E+01
DAV: 188    -0.166857922257E+04   -0.74154E+00   -0.13181E-01  5624   0.842E-01    0.752E+01
DAV: 189    -0.167296666705E+04   -0.43874E+01   -0.80039E+00  3976   0.493E+00    0.788E+01
DAV: 190    -0.166934452261E+04    0.36221E+01   -0.64910E+00  4992   0.563E+00    0.698E+01
DAV: 191    -0.165780545308E+04    0.11539E+02   -0.10441E+01  4096   0.409E+00    0.737E+01
DAV: 192    -0.165702401752E+04    0.78144E+00   -0.10871E+00  5440   0.153E+00    0.721E+01
DAV: 193    -0.164474245894E+04    0.12282E+02   -0.32445E+00  4520   0.312E+00    0.685E+01
DAV: 194    -0.164840088006E+04   -0.36584E+01   -0.52260E+00  5024   0.842E+00    0.823E+01
DAV: 195    -0.163886588169E+04    0.95350E+01   -0.27753E+00  4584   0.299E+00    0.820E+01
DAV: 196    -0.163410048322E+04    0.47654E+01   -0.17412E+00  5248   0.116E+00    0.811E+01
DAV: 197    -0.163396613937E+04    0.13434E+00   -0.25440E-01  5520   0.473E-01    0.802E+01
DAV: 198    -0.163726750045E+04   -0.33014E+01   -0.43137E-01  4672   0.785E-01    0.807E+01
DAV: 199    -0.160327092971E+04    0.33997E+02   -0.11561E+01  4504   0.204E+01    0.746E+01
DAV: 200    -0.160593621517E+04   -0.26653E+01   -0.64342E+00  5144   0.626E+00    0.770E+01
DAV: 201    -0.159310761322E+04    0.12829E+02   -0.55782E+00  4728   0.519E+00    0.800E+01
DAV: 202    -0.158957449852E+04    0.35331E+01   -0.18389E+00  5296   0.203E+00    0.767E+01
DAV: 203    -0.158663943863E+04    0.29351E+01   -0.82584E-01  5096   0.118E+00    0.728E+01
DAV: 204    -0.163942476420E+04   -0.52785E+02   -0.28628E+01  4360   0.122E+01    0.831E+01
DAV: 205    -0.164487680623E+04   -0.54520E+01   -0.52833E+00  5456   0.600E+00    0.880E+01
DAV: 206    -0.164985643379E+04   -0.49796E+01   -0.24771E+00  4824   0.255E+00    0.855E+01
DAV: 207    -0.165749344753E+04   -0.76370E+01   -0.47777E+00  4952   0.460E+00    0.850E+01
DAV: 208    -0.166517392295E+04   -0.76805E+01   -0.35369E+00  4896   0.408E+00    0.894E+01
DAV: 209    -0.167760640865E+04   -0.12432E+02   -0.14311E+01  4432   0.665E+00    0.919E+01
DAV: 210    -0.167892874253E+04   -0.13223E+01   -0.54055E+00  5544   0.594E+00    0.822E+01
DAV: 211    -0.167870925144E+04    0.21949E+00   -0.98384E-01  5056   0.368E+00    0.737E+01
DAV: 212    -0.167898786367E+04   -0.27861E+00   -0.10107E+00  5064   0.214E+00    0.782E+01
DAV: 213    -0.167833317132E+04    0.65469E+00   -0.77499E-01  5000   0.219E+00    0.806E+01
DAV: 214    -0.167764958153E+04    0.68359E+00   -0.10640E+00  5072   0.585E+00    0.734E+01
DAV: 215    -0.167644843633E+04    0.12011E+01   -0.24382E+00  4864   0.353E+00    0.693E+01
DAV: 216    -0.167459389234E+04    0.18545E+01   -0.13920E+00  4856   0.227E+00    0.683E+01
DAV: 217    -0.167332253778E+04    0.12714E+01   -0.61505E-01  5160   0.150E+00    0.743E+01
DAV: 218    -0.167381569897E+04   -0.49316E+00   -0.87867E-02  5176   0.508E-01    0.719E+01
DAV: 219    -0.167750735223E+04   -0.36917E+01   -0.42796E+00  3792   0.428E+00    0.698E+01
DAV: 220    -0.167710919800E+04    0.39815E+00   -0.64844E-01  4912   0.125E+00    0.700E+01
DAV: 221    -0.167652569965E+04    0.58350E+00   -0.25724E-01  5016   0.157E+00    0.682E+01
DAV: 222    -0.167415996059E+04    0.23657E+01   -0.14573E+00  4576   0.294E+00    0.621E+01
DAV: 223    -0.167292519199E+04    0.12348E+01   -0.89236E-01  4720   0.176E+00    0.657E+01
DAV: 224    -0.166784114995E+04    0.50840E+01   -0.25093E+00  4688   0.740E+00    0.755E+01
DAV: 225    -0.166979936635E+04   -0.19582E+01   -0.11244E+00  4784   0.178E+00    0.738E+01
DAV: 226    -0.166987723154E+04   -0.77865E-01   -0.13325E-01  5056   0.543E-01    0.721E+01
DAV: 227    -0.167019961665E+04   -0.32239E+00   -0.15118E-01  4808   0.885E-01    0.710E+01
DAV: 228    -0.166871458693E+04    0.14850E+01   -0.23419E-01  4280   0.941E-01    0.696E+01
DAV: 229    -0.167078086305E+04   -0.20663E+01   -0.52924E+00  4720   0.121E+01    0.854E+01
DAV: 230    -0.166973786005E+04    0.10430E+01   -0.87541E-01  4600   0.167E+00    0.795E+01
DAV: 231    -0.166959525611E+04    0.14260E+00   -0.13735E-01  5432   0.587E-01    0.797E+01
DAV: 232    -0.166971255164E+04   -0.11730E+00   -0.51460E-02  4992   0.755E-01    0.803E+01
DAV: 233    -0.167070863889E+04   -0.99609E+00   -0.32696E+00  4408   0.576E+00    0.709E+01
DAV: 234    -0.167306226469E+04   -0.23536E+01   -0.39326E+00  4784   0.599E+00    0.796E+01
DAV: 235    -0.167292799264E+04    0.13427E+00   -0.15995E+00  5224   0.543E+00    0.703E+01
DAV: 236    -0.167391346191E+04   -0.98547E+00   -0.73253E-01  5144   0.182E+00    0.748E+01
DAV: 237    -0.167318395778E+04    0.72950E+00   -0.18820E-01  5208   0.107E+00    0.698E+01
DAV: 238    -0.167375004455E+04   -0.56609E+00   -0.13239E-01  4856   0.165E+00    0.739E+01
DAV: 239    -0.167988628492E+04   -0.61362E+01   -0.17575E+01  4112   0.979E+00    0.934E+01
DAV: 240    -0.168079878320E+04   -0.91250E+00   -0.36498E+00  5608   0.170E+01    0.625E+01
DAV: 241    -0.168143604334E+04   -0.63726E+00   -0.13755E+00  5200   0.664E+00    0.740E+01
DAV: 242    -0.168179385636E+04   -0.35781E+00   -0.72298E-01  5096   0.204E+00    0.729E+01
DAV: 243    -0.168164459773E+04    0.14926E+00   -0.26058E-01  4880   0.103E+00    0.734E+01
DAV: 244    -0.168081521674E+04    0.82938E+00   -0.62289E-01  4688   0.199E+00    0.735E+01
DAV: 245    -0.168087646000E+04   -0.61243E-01   -0.30158E-01  4864   0.168E+00    0.714E+01
DAV: 246    -0.168120561054E+04   -0.32915E+00   -0.11376E+00  4872   0.264E+00    0.767E+01
DAV: 247    -0.168104556139E+04    0.16005E+00   -0.26100E-01  4672   0.114E+00    0.760E+01
DAV: 248    -0.168091261725E+04    0.13294E+00   -0.14235E-01  5288   0.148E+00    0.702E+01
DAV: 249    -0.168111663899E+04   -0.20402E+00   -0.99253E-01  4328   0.349E+00    0.749E+01
DAV: 250    -0.168076036273E+04    0.35628E+00   -0.16469E+00  5248   0.617E+00    0.649E+01
DAV: 251    -0.168082365669E+04   -0.63294E-01   -0.29491E-01  4144   0.783E-01    0.665E+01
DAV: 252    -0.168077315184E+04    0.50505E-01   -0.36518E-02  5664   0.407E-01    0.654E+01
DAV: 253    -0.168072483855E+04    0.48313E-01   -0.88164E-03  5408   0.205E-01    0.667E+01
DAV: 254    -0.168064478145E+04    0.80057E-01   -0.30281E-01  4928   0.238E+00    0.696E+01
DAV: 255    -0.168088760485E+04   -0.24282E+00   -0.24513E-01  4960   0.235E+00    0.671E+01
DAV: 256    -0.168074827202E+04    0.13933E+00   -0.66332E-02  4416   0.498E-01    0.680E+01
DAV: 257    -0.168073469241E+04    0.13580E-01   -0.55403E-02  5016   0.626E-01    0.685E+01
DAV: 258    -0.168077814382E+04   -0.43451E-01   -0.65865E-02  4504   0.442E-01    0.688E+01
DAV: 259    -0.168099085514E+04   -0.21271E+00   -0.26107E+00  4352   0.638E+00    0.621E+01
DAV: 260    -0.168088060083E+04    0.11025E+00   -0.97963E-01  5152   0.372E+00    0.663E+01
DAV: 261    -0.168076173597E+04    0.11886E+00   -0.86793E-01  4360   0.205E+00    0.678E+01
DAV: 262    -0.168079289143E+04   -0.31155E-01   -0.31315E-01  5088   0.865E-01    0.669E+01
DAV: 263    -0.168076136417E+04    0.31527E-01   -0.32455E-02  5552   0.316E-01    0.664E+01
DAV: 264    -0.168116537976E+04   -0.40402E+00   -0.33882E-01  4520   0.217E+00    0.664E+01
DAV: 265    -0.168108856854E+04    0.76811E-01   -0.37093E-01  4928   0.216E+00    0.654E+01
DAV: 266    -0.168077619257E+04    0.31238E+00   -0.75591E-01  4480   0.221E+00    0.640E+01
DAV: 267    -0.168065641757E+04    0.11977E+00   -0.26263E+00  5000   0.497E+00    0.685E+01
DAV: 268    -0.168131156582E+04   -0.65515E+00   -0.42025E-01  4440   0.111E+00    0.711E+01
DAV: 269    -0.167773757242E+04    0.35740E+01   -0.12464E+01  4128   0.112E+01    0.891E+01
DAV: 270    -0.167373193367E+04    0.40056E+01   -0.60175E+00  5248   0.717E+00    0.719E+01
DAV: 271    -0.167446822918E+04   -0.73630E+00   -0.19149E+00  4560   0.438E+00    0.630E+01
DAV: 272    -0.167278295654E+04    0.16853E+01   -0.22318E+00  4776   0.413E+00    0.608E+01
DAV: 273    -0.167120680019E+04    0.15762E+01   -0.13538E+00  4928   0.180E+00    0.599E+01
DAV: 274    -0.167036160833E+04    0.84519E+00   -0.24140E+00  4344   0.391E+00    0.639E+01
DAV: 275    -0.166922265366E+04    0.11390E+01   -0.23127E+00  4608   0.261E+00    0.639E+01
DAV: 276    -0.166836057224E+04    0.86208E+00   -0.48152E-01  5256   0.161E+00    0.608E+01
DAV: 277    -0.166771105990E+04    0.64951E+00   -0.24966E-01  4432   0.749E-01    0.607E+01
DAV: 278    -0.166860885727E+04   -0.89780E+00   -0.28084E-01  4800   0.664E-01    0.620E+01
DAV: 279    -0.168093971325E+04   -0.12331E+02   -0.19324E+01  4176   0.142E+01    0.817E+01
DAV: 280    -0.168148202267E+04   -0.54231E+00   -0.20057E+00  5560   0.948E+00    0.653E+01
DAV: 281    -0.168098861243E+04    0.49341E+00   -0.17839E+00  4776   0.461E+00    0.589E+01
DAV: 282    -0.167994445488E+04    0.10442E+01   -0.10661E+00  5168   0.320E+00    0.558E+01
DAV: 283    -0.167816292441E+04    0.17815E+01   -0.21537E+00  4680   0.224E+00    0.598E+01
DAV: 284    -0.167771949769E+04    0.44343E+00   -0.20201E+00  4752   0.205E+00    0.638E+01
DAV: 285    -0.167728519099E+04    0.43431E+00   -0.22489E-01  5104   0.707E-01    0.649E+01
DAV: 286    -0.167621999167E+04    0.10652E+01   -0.22719E-01  4536   0.684E-01    0.654E+01
DAV: 287    -0.167401093571E+04    0.22091E+01   -0.40972E-01  4224   0.740E-01    0.646E+01
DAV: 288    -0.167170890353E+04    0.23020E+01   -0.31118E-01  5016   0.641E-01    0.644E+01
DAV: 289    -0.167181107571E+04   -0.10217E+00   -0.10219E+00  4640   0.365E+00    0.703E+01
DAV: 290    -0.167248502163E+04   -0.67395E+00   -0.13333E+00  5008   0.339E+00    0.651E+01
DAV: 291    -0.167385571450E+04   -0.13707E+01   -0.93660E-01  4928   0.149E+00    0.671E+01
DAV: 292    -0.167337889016E+04    0.47682E+00   -0.14632E-01  5128   0.762E-01    0.648E+01
DAV: 293    -0.167287565080E+04    0.50324E+00   -0.15187E+00  3936   0.164E+00    0.638E+01
DAV: 294    -0.167808651712E+04   -0.52109E+01   -0.14341E+01  4512   0.125E+01    0.873E+01
DAV: 295    -0.167508981204E+04    0.29967E+01   -0.41046E+00  5304   0.613E+00    0.663E+01
DAV: 296    -0.166027983327E+04    0.14810E+02   -0.12776E+01  4152   0.620E+00    0.577E+01
DAV: 297    -0.165030069360E+04    0.99791E+01   -0.46217E+00  5280   0.280E+00    0.603E+01
DAV: 298    -0.163861126028E+04    0.11689E+02   -0.30649E+00  4784   0.244E+00    0.668E+01
DAV: 299    -0.165884012697E+04   -0.20229E+02   -0.72502E+00  4784   0.152E+01    0.864E+01
DAV: 300    -0.166016234184E+04   -0.13222E+01   -0.16008E+00  5488   0.475E+00    0.741E+01
DAV: 301    -0.166146263681E+04   -0.13003E+01   -0.12724E+00  5064   0.513E+00    0.682E+01
DAV: 302    -0.166869443668E+04   -0.72318E+01   -0.34736E+00  4728   0.376E+00    0.604E+01
DAV: 303    -0.167454715347E+04   -0.58527E+01   -0.32058E+00  4872   0.262E+00    0.639E+01
DAV: 304    -0.167307543151E+04    0.14717E+01   -0.46893E+00  4752   0.405E+00    0.702E+01
DAV: 305    -0.167362322959E+04   -0.54780E+00   -0.24047E+00  4560   0.385E+00    0.603E+01
DAV: 306    -0.167453351203E+04   -0.91028E+00   -0.85566E-01  5032   0.215E+00    0.631E+01
DAV: 307    -0.167410739885E+04    0.42611E+00   -0.24812E-01  4616   0.871E-01    0.622E+01
DAV: 308    -0.167374943881E+04    0.35796E+00   -0.41556E-02  5464   0.381E-01    0.646E+01
DAV: 309    -0.168076462730E+04   -0.70152E+01   -0.10849E+01  3992   0.374E+00    0.648E+01
DAV: 310    -0.168135036500E+04   -0.58574E+00   -0.22840E+00  5112   0.427E+00    0.600E+01
DAV: 311    -0.168171909956E+04   -0.36873E+00   -0.91080E-01  5128   0.209E+00    0.631E+01
DAV: 312    -0.168120931660E+04    0.50978E+00   -0.20875E+00  4968   0.131E+00    0.616E+01
DAV: 313    -0.168029754339E+04    0.91177E+00   -0.22084E+00  3840   0.201E+00    0.631E+01
DAV: 314    -0.167999720994E+04    0.30033E+00   -0.20700E+00  4840   0.190E+00    0.646E+01
DAV: 315    -0.167843553754E+04    0.15617E+01   -0.43533E-01  4648   0.689E-01    0.655E+01
DAV: 316    -0.167848260186E+04   -0.47064E-01   -0.53297E-02  5352   0.409E-01    0.656E+01
DAV: 317    -0.167844197132E+04    0.40631E-01   -0.10254E-02  5336   0.159E-01    0.657E+01
DAV: 318    -0.167939805701E+04   -0.95609E+00   -0.23195E-01  4184   0.415E-01    0.656E+01
DAV: 319    -0.168387961692E+04   -0.44816E+01   -0.22867E+00  3856   0.197E+00    0.692E+01
DAV: 320    -0.168338348701E+04    0.49613E+00   -0.24143E-01  5464   0.148E+00    0.655E+01
DAV: 321    -0.168241813702E+04    0.96535E+00   -0.90680E-01  4608   0.359E+00    0.608E+01
DAV: 322    -0.168216222588E+04    0.25591E+00   -0.80705E-01  5200   0.240E+00    0.587E+01
DAV: 323    -0.168193665809E+04    0.22557E+00   -0.35112E-01  5288   0.324E+00    0.558E+01
DAV: 324    -0.168311291969E+04   -0.11763E+01   -0.11584E+00  4744   0.192E+00    0.574E+01
DAV: 325    -0.168314530293E+04   -0.32383E-01   -0.13231E-01  4816   0.557E-01    0.596E+01
DAV: 326    -0.168311934209E+04    0.25961E-01   -0.15220E-02  5752   0.204E-01    0.600E+01
DAV: 327    -0.168310998460E+04    0.93575E-02   -0.13399E-03  5752   0.741E-02    0.600E+01
DAV: 328    -0.168312050332E+04   -0.10519E-01   -0.32236E-04  5376   0.688E-02    0.599E+01
DAV: 329    -0.168332253620E+04   -0.20203E+00   -0.96164E-01  4032   0.322E+00    0.650E+01
DAV: 330    -0.168328983761E+04    0.32699E-01   -0.49257E-01  4856   0.195E+00    0.652E+01
DAV: 331    -0.168308342192E+04    0.20642E+00   -0.19911E-01  4688   0.994E-01    0.641E+01
DAV: 332    -0.168236586853E+04    0.71755E+00   -0.20832E-01  4936   0.121E+00    0.652E+01
DAV: 333    -0.168197842648E+04    0.38744E+00   -0.14851E-01  4904   0.146E+00    0.642E+01
DAV: 334    -0.168283680522E+04   -0.85838E+00   -0.82979E-01  4776   0.580E+00    0.733E+01
DAV: 335    -0.168146322103E+04    0.13736E+01   -0.14531E+00  4848   0.155E+00    0.739E+01
DAV: 336    -0.168052115933E+04    0.94206E+00   -0.45083E-01  4784   0.190E+00    0.678E+01
DAV: 337    -0.168049349091E+04    0.27668E-01   -0.21584E-01  4944   0.219E+00    0.635E+01
DAV: 338    -0.168069488030E+04   -0.20139E+00   -0.36618E-01  4824   0.320E+00    0.586E+01
DAV: 339    -0.168089874041E+04   -0.20386E+00   -0.75545E-01  4672   0.210E+00    0.595E+01
DAV: 340    -0.168044129630E+04    0.45744E+00   -0.33526E-01  4568   0.143E+00    0.566E+01
DAV: 341    -0.167954058684E+04    0.90071E+00   -0.47281E-01  4784   0.148E+00    0.594E+01
DAV: 342    -0.167869546438E+04    0.84512E+00   -0.11190E+00  4056   0.106E+00    0.610E+01
DAV: 343    -0.167811105878E+04    0.58441E+00   -0.20556E-01  4896   0.537E-01    0.602E+01
DAV: 344    -0.167306807424E+04    0.50430E+01   -0.33132E+00  3792   0.223E+00    0.581E+01
DAV: 345    -0.167232845757E+04    0.73962E+00   -0.28929E-01  5480   0.907E-01    0.569E+01
DAV: 346    -0.167140352282E+04    0.92493E+00   -0.12451E-01  4976   0.618E-01    0.581E+01
DAV: 347    -0.167122159563E+04    0.18193E+00   -0.28927E-02  5208   0.220E-01    0.584E+01
DAV: 348    -0.167146289113E+04   -0.24130E+00   -0.12683E-02  5032   0.129E-01    0.584E+01
DAV: 349    -0.166884767243E+04    0.26152E+01   -0.28833E+01  4112   0.200E+01    0.856E+01
DAV: 350    -0.166969126458E+04   -0.84359E+00   -0.20800E+00  5392   0.614E+00    0.660E+01
DAV: 351    -0.167761715587E+04   -0.79259E+01   -0.89584E+00  4528   0.828E+00    0.560E+01
DAV: 352    -0.167797128666E+04   -0.35413E+00   -0.15276E+00  5104   0.355E+00    0.544E+01
DAV: 353    -0.167848756536E+04   -0.51628E+00   -0.83705E-01  4792   0.171E+00    0.582E+01
DAV: 354    -0.168084552633E+04   -0.23580E+01   -0.39085E+00  4200   0.417E+00    0.611E+01
DAV: 355    -0.168117798980E+04   -0.33246E+00   -0.91148E-01  5184   0.692E+00    0.489E+01
DAV: 356    -0.168169903398E+04   -0.52104E+00   -0.81840E-01  4872   0.305E+00    0.560E+01
DAV: 357    -0.168173888601E+04   -0.39852E-01   -0.19160E-01  4976   0.670E-01    0.547E+01
DAV: 358    -0.168166592933E+04    0.72957E-01   -0.39140E-02  5256   0.881E-01    0.518E+01
DAV: 359    -0.168118742621E+04    0.47850E+00   -0.70879E-01  4456   0.509E+00    0.572E+01
DAV: 360    -0.168166213202E+04   -0.47471E+00   -0.38608E-01  4904   0.148E+00    0.575E+01
DAV: 361    -0.168217549477E+04   -0.51336E+00   -0.43299E-01  4832   0.325E+00    0.507E+01
DAV: 362    -0.168233199048E+04   -0.15650E+00   -0.19558E-01  5368   0.982E-01    0.545E+01
DAV: 363    -0.168228996398E+04    0.42027E-01   -0.29616E-02  5216   0.321E-01    0.543E+01
DAV: 364    -0.168250282253E+04   -0.21286E+00   -0.25549E-01  4784   0.401E+00    0.589E+01
DAV: 365    -0.168223189047E+04    0.27093E+00   -0.79107E-02  5112   0.314E+00    0.537E+01
DAV: 366    -0.168216189969E+04    0.69991E-01   -0.45485E-02  4824   0.365E-01    0.527E+01
DAV: 367    -0.168209518950E+04    0.66710E-01   -0.30496E-02  5088   0.117E+00    0.516E+01
DAV: 368    -0.168209652531E+04   -0.13358E-02   -0.14684E-01  4552   0.163E+00    0.545E+01
DAV: 369    -0.168178585877E+04    0.31067E+00   -0.15754E+00  4464   0.296E+00    0.541E+01
DAV: 370    -0.168189465213E+04   -0.10879E+00   -0.32194E-01  4456   0.831E-01    0.557E+01
DAV: 371    -0.168184374300E+04    0.50909E-01   -0.42583E-02  5352   0.338E-01    0.546E+01
DAV: 372    -0.168188337594E+04   -0.39633E-01   -0.19069E-02  5312   0.941E-01    0.537E+01
DAV: 373    -0.168199084588E+04   -0.10747E+00   -0.18101E-01  4640   0.127E+00    0.544E+01
DAV: 374    -0.168183681423E+04    0.15403E+00   -0.98427E-02  4712   0.891E-01    0.540E+01
DAV: 375    -0.168183647585E+04    0.33838E-03   -0.26916E-02  5136   0.313E-01    0.542E+01
DAV: 376    -0.168177814234E+04    0.58334E-01   -0.21562E-02  4872   0.459E-01    0.542E+01
DAV: 377    -0.168179749937E+04   -0.19357E-01   -0.10532E-02  5176   0.171E-01    0.547E+01
DAV: 378    -0.168181161701E+04   -0.14118E-01   -0.22154E-03  5536   0.780E-02    0.542E+01
DAV: 379    -0.168151819819E+04    0.29342E+00   -0.25430E-01  4504   0.273E+00    0.571E+01
DAV: 380    -0.168168411259E+04   -0.16591E+00   -0.46852E-02  4592   0.405E-01    0.554E+01
DAV: 381    -0.168181014142E+04   -0.12603E+00   -0.27556E-02  5224   0.397E-01    0.556E+01
DAV: 382    -0.168189091621E+04   -0.80775E-01   -0.14724E-01  4432   0.190E+00    0.537E+01
DAV: 383    -0.168193466669E+04   -0.43750E-01   -0.28117E-01  5072   0.180E+00    0.587E+01
DAV: 384    -0.168150396867E+04    0.43070E+00   -0.27229E-01  4336   0.133E+00    0.580E+01
DAV: 385    -0.168174632913E+04   -0.24236E+00   -0.21485E-01  5056   0.157E+00    0.592E+01
DAV: 386    -0.168171966866E+04    0.26660E-01   -0.33368E-01  4736   0.781E-01    0.590E+01
DAV: 387    -0.168160620628E+04    0.11346E+00   -0.67945E-01  4712   0.124E+00    0.597E+01
DAV: 388    -0.168183519827E+04   -0.22899E+00   -0.12536E-01  4696   0.789E-01    0.569E+01
DAV: 389    -0.168178605355E+04    0.49145E-01   -0.68424E-01  4496   0.717E+00    0.691E+01
DAV: 390    -0.168189904097E+04   -0.11299E+00   -0.47059E-01  4928   0.357E+00    0.612E+01
DAV: 391    -0.168185717246E+04    0.41869E-01   -0.33594E-01  5048   0.537E+00    0.557E+01
DAV: 392    -0.168219070500E+04   -0.33353E+00   -0.27680E+00  4664   0.155E+00    0.584E+01
DAV: 393    -0.168226709059E+04   -0.76386E-01   -0.11947E-01  4456   0.679E-01    0.568E+01
DAV: 394    -0.168233386063E+04   -0.66770E-01   -0.12624E-01  4696   0.168E+00    0.583E+01
DAV: 395    -0.168232713358E+04    0.67271E-02   -0.75526E-02  4864   0.736E-01    0.569E+01
DAV: 396    -0.168183615559E+04    0.49098E+00   -0.11797E-01  4208   0.954E-01    0.562E+01
DAV: 397    -0.168159107087E+04    0.24508E+00   -0.10971E-01  5152   0.761E-01    0.575E+01
DAV: 398    -0.168194188999E+04   -0.35082E+00   -0.42538E-02  4632   0.966E-01    0.599E+01
DAV: 399    -0.168182173088E+04    0.12016E+00   -0.52521E-02  4432   0.661E-01    0.601E+01
DAV: 400    -0.168164156496E+04    0.18017E+00   -0.17384E-01  4472   0.839E-01    0.595E+01
DAV: 401    -0.168124528904E+04    0.39628E+00   -0.22405E-01  4536   0.120E+00    0.574E+01
DAV: 402    -0.168140239059E+04   -0.15710E+00   -0.59402E-02  5024   0.622E-01    0.560E+01
DAV: 403    -0.168138678849E+04    0.15602E-01   -0.96278E-02  4824   0.102E+00    0.552E+01
DAV: 404    -0.168154631403E+04   -0.15953E+00   -0.25014E-01  4680   0.171E+00    0.536E+01
DAV: 405    -0.168137163341E+04    0.17468E+00   -0.39416E-01  4848   0.298E+00    0.583E+01
DAV: 406    -0.168117814911E+04    0.19348E+00   -0.21151E-01  4856   0.201E+00    0.548E+01
DAV: 407    -0.168114976999E+04    0.28379E-01   -0.99496E-02  5152   0.797E-01    0.566E+01
DAV: 408    -0.168103277978E+04    0.11699E+00   -0.80802E-02  5008   0.126E+00    0.550E+01
DAV: 409    -0.168065921979E+04    0.37356E+00   -0.59453E-01  4696   0.351E+00    0.611E+01
DAV: 410    -0.168057225867E+04    0.86961E-01   -0.23354E-01  4992   0.122E+00    0.571E+01
DAV: 411    -0.168020550046E+04    0.36676E+00   -0.69648E-01  4576   0.205E+00    0.541E+01
DAV: 412    -0.167932378391E+04    0.88172E+00   -0.65280E-01  4776   0.208E+00    0.596E+01
DAV: 413    -0.167941522564E+04   -0.91442E-01   -0.10260E-01  4712   0.446E-01    0.591E+01
DAV: 414    -0.167860398932E+04    0.81124E+00   -0.10621E+00  4256   0.290E+00    0.631E+01
DAV: 415    -0.167826671150E+04    0.33728E+00   -0.17311E-01  4616   0.547E-01    0.626E+01
DAV: 416    -0.167824775276E+04    0.18959E-01   -0.16759E-02  5520   0.189E-01    0.615E+01
DAV: 417    -0.167828649662E+04   -0.38744E-01   -0.58259E-03  4984   0.269E-01    0.617E+01
DAV: 418    -0.167881268332E+04   -0.52619E+00   -0.14115E-01  4040   0.614E-01    0.623E+01
DAV: 419    -0.168175249441E+04   -0.29398E+01   -0.10586E+01  3880   0.900E+00    0.609E+01
DAV: 420    -0.168180390843E+04   -0.51414E-01   -0.21839E+00  5064   0.211E+00    0.564E+01
DAV: 421    -0.168182618537E+04   -0.22277E-01   -0.82683E-01  5016   0.213E+00    0.516E+01
DAV: 422    -0.168221768612E+04   -0.39150E+00   -0.50495E-01  4880   0.203E+00    0.489E+01
DAV: 423    -0.168215964506E+04    0.58041E-01   -0.36468E-01  5048   0.123E+00    0.493E+01
DAV: 424    -0.168164169642E+04    0.51795E+00   -0.66606E-01  4704   0.224E+00    0.546E+01
DAV: 425    -0.168170586787E+04   -0.64171E-01   -0.20095E-01  5128   0.173E+00    0.492E+01
DAV: 426    -0.168157899391E+04    0.12687E+00   -0.15430E-01  5056   0.174E+00    0.544E+01
DAV: 427    -0.168132391616E+04    0.25508E+00   -0.52097E-01  4376   0.125E+00    0.545E+01
DAV: 428    -0.168137642193E+04   -0.52506E-01   -0.16736E-01  4936   0.134E+00    0.525E+01
DAV: 429    -0.168123262138E+04    0.14380E+00   -0.12831E-01  4600   0.940E-01    0.553E+01
DAV: 430    -0.168106056368E+04    0.17206E+00   -0.55875E-02  5200   0.400E-01    0.561E+01
DAV: 431    -0.168103075678E+04    0.29807E-01   -0.11387E-02  5432   0.289E-01    0.567E+01
DAV: 432    -0.168100625510E+04    0.24502E-01   -0.53942E-03  5056   0.231E-01    0.568E+01
DAV: 433    -0.168102184112E+04   -0.15586E-01   -0.11962E-02  4728   0.276E-01    0.555E+01
DAV: 434    -0.168136948045E+04   -0.34764E+00   -0.21392E-01  3960   0.118E+00    0.548E+01
DAV: 435    -0.168125133650E+04    0.11814E+00   -0.14777E-01  4952   0.668E-01    0.559E+01
DAV: 436    -0.168137944708E+04   -0.12811E+00   -0.82149E-02  4584   0.112E+00    0.530E+01
DAV: 437    -0.168140300823E+04   -0.23561E-01   -0.39527E-02  5208   0.425E-01    0.543E+01
DAV: 438    -0.168142836559E+04   -0.25357E-01   -0.22426E-02  4680   0.310E-01    0.538E+01
DAV: 439    -0.168137208254E+04    0.56283E-01   -0.12254E-01  4392   0.755E-01    0.551E+01
DAV: 440    -0.168133340070E+04    0.38682E-01   -0.27717E-02  4216   0.300E-01    0.554E+01
DAV: 441    -0.168133807882E+04   -0.46781E-02   -0.46728E-03  5128   0.131E-01    0.548E+01
DAV: 442    -0.168133551895E+04    0.25599E-02   -0.48903E-04  5440   0.460E-02    0.546E+01
DAV: 443    -0.168132228938E+04    0.13230E-01   -0.49628E-04  4648   0.513E-02    0.546E+01
DAV: 444    -0.168082814639E+04    0.49414E+00   -0.29715E+00  3776   0.364E+00    0.536E+01
DAV: 445    -0.168115961887E+04   -0.33147E+00   -0.57419E-01  5160   0.172E+00    0.478E+01
DAV: 446    -0.168070242962E+04    0.45719E+00   -0.19741E-01  4848   0.781E-01    0.474E+01
DAV: 447    -0.168075104086E+04   -0.48611E-01   -0.52235E-02  5152   0.316E-01    0.481E+01
DAV: 448    -0.168075177763E+04   -0.73677E-03   -0.58184E-03  5704   0.129E-01    0.493E+01
DAV: 449    -0.168155780588E+04   -0.80603E+00   -0.90598E-01  3864   0.216E+00    0.498E+01
DAV: 450    -0.168166903288E+04   -0.11123E+00   -0.26192E-01  5144   0.106E+00    0.532E+01
DAV: 451    -0.168172126763E+04   -0.52235E-01   -0.42725E-02  5224   0.324E-01    0.531E+01
DAV: 452    -0.168175005128E+04   -0.28784E-01   -0.17216E-02  5184   0.443E-01    0.518E+01
DAV: 453    -0.168177583723E+04   -0.25786E-01   -0.57289E-02  4408   0.598E-01    0.515E+01
DAV: 454    -0.168161040570E+04    0.16543E+00   -0.14876E+00  4232   0.378E+00    0.603E+01
DAV: 455    -0.168207173811E+04   -0.46133E+00   -0.38403E-01  5112   0.218E+00    0.537E+01
DAV: 456    -0.168229683652E+04   -0.22510E+00   -0.19433E-01  4704   0.982E-01    0.520E+01
DAV: 457    -0.168244371106E+04   -0.14687E+00   -0.28506E-01  5224   0.685E-01    0.518E+01
DAV: 458    -0.168239494244E+04    0.48769E-01   -0.35569E-02  4248   0.305E-01    0.523E+01
DAV: 459    -0.168270469555E+04   -0.30975E+00   -0.29555E+00  4360   0.684E+00    0.651E+01
DAV: 460    -0.168195867080E+04    0.74602E+00   -0.72723E-01  5280   0.676E+00    0.552E+01
DAV: 461    -0.168207294270E+04   -0.11427E+00   -0.17148E-01  4928   0.888E-01    0.597E+01
DAV: 462    -0.168205792566E+04    0.15017E-01   -0.40960E-02  5040   0.825E-01    0.556E+01
DAV: 463    -0.168208684899E+04   -0.28923E-01   -0.93511E-03  5016   0.168E-01    0.562E+01
DAV: 464    -0.168185821060E+04    0.22864E+00   -0.74894E-01  4080   0.207E+00    0.580E+01
DAV: 465    -0.168192346860E+04   -0.65258E-01   -0.58088E-01  4960   0.148E+00    0.570E+01
DAV: 466    -0.168210439580E+04   -0.18093E+00   -0.16433E-01  5064   0.773E-01    0.581E+01
DAV: 467    -0.168247569009E+04   -0.37129E+00   -0.10589E+00  4344   0.149E+00    0.545E+01
DAV: 468    -0.168253764388E+04   -0.61954E-01   -0.21530E-01  5312   0.151E+00    0.561E+01
DAV: 469    -0.168257621886E+04   -0.38575E-01   -0.10768E-01  4792   0.943E-01    0.521E+01
DAV: 470    -0.168263998698E+04   -0.63768E-01   -0.49900E-02  5248   0.460E-01    0.536E+01
DAV: 471    -0.168262865831E+04    0.11329E-01   -0.12755E-02  4648   0.163E-01    0.531E+01
DAV: 472    -0.168263071126E+04   -0.20529E-02   -0.13651E-03  5464   0.993E-02    0.532E+01
DAV: 473    -0.168262413842E+04    0.65728E-02   -0.13655E-03  4848   0.698E-02    0.530E+01
DAV: 474    -0.168261447361E+04    0.96648E-02   -0.60865E-02  4096   0.692E-01    0.517E+01
DAV: 475    -0.168264093752E+04   -0.26464E-01   -0.85426E-02  4768   0.942E-01    0.511E+01
DAV: 476    -0.168278250165E+04   -0.14156E+00   -0.32997E-01  4536   0.218E+00    0.541E+01
DAV: 477    -0.168282930334E+04   -0.46802E-01   -0.37876E-01  5224   0.258E+00    0.483E+01
DAV: 478    -0.168288238625E+04   -0.53083E-01   -0.34629E-01  4720   0.142E+00    0.507E+01
DAV: 479    -0.168269881525E+04    0.18357E+00   -0.25701E-01  4520   0.124E+00    0.501E+01
DAV: 480    -0.168268511188E+04    0.13703E-01   -0.67920E-02  5072   0.508E-01    0.499E+01
DAV: 481    -0.168260366311E+04    0.81449E-01   -0.24113E-02  5040   0.524E-01    0.500E+01
DAV: 482    -0.168252118765E+04    0.82475E-01   -0.43403E-02  4448   0.550E-01    0.504E+01
DAV: 483    -0.168230042769E+04    0.22076E+00   -0.10543E-01  4432   0.636E-01    0.517E+01
DAV: 484    -0.168233623733E+04   -0.35810E-01   -0.12671E+00  4208   0.407E+00    0.566E+01
DAV: 485    -0.168241995442E+04   -0.83717E-01   -0.35091E-01  5040   0.119E+00    0.544E+01
DAV: 486    -0.168244125732E+04   -0.21303E-01   -0.10572E-01  4792   0.117E+00    0.523E+01
DAV: 487    -0.168229159737E+04    0.14966E+00   -0.90241E-02  5144   0.120E+00    0.539E+01
DAV: 488    -0.168227907238E+04    0.12525E-01   -0.28153E-02  5032   0.530E-01    0.533E+01
DAV: 489    -0.168220384188E+04    0.75230E-01   -0.23905E+00  4032   0.516E+00    0.557E+01
DAV: 490    -0.168242252180E+04   -0.21868E+00   -0.76154E-01  5256   0.258E+00    0.492E+01
DAV: 491    -0.168217313353E+04    0.24939E+00   -0.29885E-01  4592   0.146E+00    0.487E+01
DAV: 492    -0.168216950474E+04    0.36288E-02   -0.10612E-01  5360   0.617E-01    0.516E+01
DAV: 493    -0.168216523476E+04    0.42700E-02   -0.66931E-02  4744   0.491E-01    0.513E+01
DAV: 494    -0.168235473503E+04   -0.18950E+00   -0.90589E-01  4040   0.196E+00    0.525E+01
DAV: 495    -0.168231761298E+04    0.37122E-01   -0.15399E-01  5128   0.878E-01    0.539E+01
DAV: 496    -0.168210270300E+04    0.21491E+00   -0.23232E-01  4520   0.122E+00    0.546E+01
DAV: 497    -0.168211570535E+04   -0.13002E-01   -0.66326E-02  4568   0.382E-01    0.542E+01
DAV: 498    -0.168189267956E+04    0.22303E+00   -0.21889E-01  4408   0.129E+00    0.533E+01
DAV: 499    -0.168113247092E+04    0.76021E+00   -0.75100E+00  3848   0.687E+00    0.597E+01
DAV: 500    -0.168242946433E+04   -0.12970E+01   -0.15976E+00  4968   0.215E+00    0.531E+01
DAV: 501    -0.168205629942E+04    0.37316E+00   -0.83906E-01  5016   0.306E+00    0.498E+01
DAV: 502    -0.168223354348E+04   -0.17724E+00   -0.90115E-01  5040   0.198E+00    0.542E+01
DAV: 503    -0.168186298776E+04    0.37056E+00   -0.10409E+00  4224   0.208E+00    0.495E+01
DAV: 504    -0.167802078119E+04    0.38422E+01   -0.58189E+00  4552   0.114E+01    0.672E+01
DAV: 505    -0.168144484215E+04   -0.34241E+01   -0.34134E+00  5176   0.133E+01    0.471E+01
DAV: 506    -0.168206867445E+04   -0.62383E+00   -0.62157E-01  5152   0.524E+00    0.572E+01
DAV: 507    -0.168242803861E+04   -0.35936E+00   -0.29995E-01  5184   0.222E+00    0.507E+01
DAV: 508    -0.168269045439E+04   -0.26242E+00   -0.17062E-01  4824   0.132E+00    0.496E+01
DAV: 509    -0.168349805724E+04   -0.80760E+00   -0.63141E-01  4680   0.435E+00    0.577E+01
DAV: 510    -0.168346889382E+04    0.29163E-01   -0.50076E-01  5328   0.313E+00    0.515E+01
DAV: 511    -0.168350621211E+04   -0.37318E-01   -0.13168E-01  5160   0.774E-01    0.556E+01
DAV: 512    -0.168346383602E+04    0.42376E-01   -0.47310E-02  4848   0.916E-01    0.521E+01
DAV: 513    -0.168346871765E+04   -0.48816E-02   -0.18636E-01  3992   0.107E+00    0.507E+01
DAV: 514    -0.167656927901E+04    0.68994E+01   -0.15002E+01  3760   0.834E+00    0.588E+01
DAV: 515    -0.167229999552E+04    0.42693E+01   -0.33657E+00  5368   0.608E+00    0.467E+01
DAV: 516    -0.166862783559E+04    0.36722E+01   -0.10728E+00  4560   0.137E+00    0.450E+01
DAV: 517    -0.166890208299E+04   -0.27425E+00   -0.15418E-01  5328   0.577E-01    0.471E+01
DAV: 518    -0.167338717600E+04   -0.44851E+01   -0.12738E+00  3824   0.110E+00    0.483E+01
DAV: 519    -0.167339453783E+04   -0.73618E-02   -0.69634E-01  5088   0.338E+00    0.548E+01
DAV: 520    -0.167197343428E+04    0.14211E+01   -0.81991E-01  4200   0.145E+00    0.524E+01
DAV: 521    -0.167189356198E+04    0.79872E-01   -0.14242E-01  4960   0.103E+00    0.543E+01
DAV: 522    -0.167222505821E+04   -0.33150E+00   -0.14692E-01  4256   0.880E-01    0.540E+01
DAV: 523    -0.167427778666E+04   -0.20527E+01   -0.57211E-01  4120   0.123E+00    0.554E+01
DAV: 524    -0.168213468427E+04   -0.78569E+01   -0.12810E+01  3536   0.345E+00    0.552E+01
DAV: 525    -0.168238645836E+04   -0.25177E+00   -0.20189E+00  5440   0.208E+00    0.583E+01
DAV: 526    -0.168236768926E+04    0.18769E-01   -0.17234E-01  5216   0.151E+00    0.603E+01
DAV: 527    -0.168231993667E+04    0.47753E-01   -0.16660E-01  4912   0.116E+00    0.585E+01
DAV: 528    -0.168220924354E+04    0.11069E+00   -0.23116E-01  4888   0.127E+00    0.591E+01
DAV: 529    -0.168237352664E+04   -0.16428E+00   -0.16702E-01  4544   0.107E+00    0.588E+01
DAV: 530    -0.168242533608E+04   -0.51809E-01   -0.96548E-02  4728   0.942E-01    0.577E+01
DAV: 531    -0.168241791446E+04    0.74216E-02   -0.34113E-02  5032   0.358E-01    0.568E+01
DAV: 532    -0.168236991265E+04    0.48002E-01   -0.67991E-02  4752   0.101E+00    0.560E+01
DAV: 533    -0.168235161744E+04    0.18295E-01   -0.97127E-02  4928   0.109E+00    0.556E+01
DAV: 534    -0.168233216726E+04    0.19450E-01   -0.26197E-01  4424   0.124E+00    0.580E+01
DAV: 535    -0.168236038054E+04   -0.28213E-01   -0.13550E-01  5032   0.127E+00    0.553E+01
DAV: 536    -0.168245022389E+04   -0.89843E-01   -0.66656E-01  4320   0.947E-01    0.567E+01
DAV: 537    -0.168241532763E+04    0.34896E-01   -0.63495E-02  4600   0.397E-01    0.577E+01
DAV: 538    -0.168242841178E+04   -0.13084E-01   -0.12122E-02  4936   0.335E-01    0.562E+01
DAV: 539    -0.168287599040E+04   -0.44758E+00   -0.30590E+00  4096   0.600E+00    0.651E+01
DAV: 540    -0.168235089919E+04    0.52509E+00   -0.23279E+00  5200   0.483E+00    0.547E+01
DAV: 541    -0.168265173555E+04   -0.30084E+00   -0.18075E+00  4448   0.497E+00    0.488E+01
DAV: 542    -0.168271845410E+04   -0.66719E-01   -0.89859E-01  5280   0.198E+00    0.556E+01
DAV: 543    -0.168267475760E+04    0.43696E-01   -0.10647E-01  4928   0.561E-01    0.560E+01
DAV: 544    -0.168236836797E+04    0.30639E+00   -0.33031E-01  4336   0.144E+00    0.560E+01
DAV: 545    -0.168227126078E+04    0.97107E-01   -0.18936E-01  4688   0.932E-01    0.534E+01
DAV: 546    -0.168227460385E+04   -0.33431E-02   -0.34133E-02  4832   0.266E-01    0.533E+01
DAV: 547    -0.168227494406E+04   -0.34021E-03   -0.42024E-03  5720   0.993E-02    0.530E+01
DAV: 548    -0.168221454405E+04    0.60400E-01   -0.71356E-03  4408   0.156E-01    0.528E+01
DAV: 549    -0.168085802388E+04    0.13565E+01   -0.89358E-01  3664   0.129E+00    0.510E+01
DAV: 550    -0.168123978596E+04   -0.38176E+00   -0.26127E-01  4664   0.136E+00    0.516E+01
DAV: 551    -0.168111728724E+04    0.12250E+00   -0.31591E-01  4472   0.126E+00    0.523E+01
DAV: 552    -0.168037966686E+04    0.73762E+00   -0.22691E-01  4496   0.765E-01    0.536E+01
DAV: 553    -0.168056629149E+04   -0.18662E+00   -0.36621E-02  4920   0.269E-01    0.528E+01
DAV: 554    -0.168114234614E+04   -0.57605E+00   -0.35396E-01  4208   0.116E+00    0.542E+01
DAV: 555    -0.168111498387E+04    0.27362E-01   -0.13271E-01  5040   0.816E-01    0.538E+01
DAV: 556    -0.168190192214E+04   -0.78694E+00   -0.40864E-01  4072   0.875E-01    0.547E+01
DAV: 557    -0.168193617621E+04   -0.34254E-01   -0.41768E-02  5016   0.282E-01    0.539E+01
DAV: 558    -0.168194383273E+04   -0.76565E-02   -0.38604E-03  5472   0.159E-01    0.530E+01
DAV: 559    -0.166466194900E+04    0.17282E+02   -0.34389E+01  3680   0.810E+00    0.619E+01
DAV: 560    -0.165079712384E+04    0.13865E+02   -0.69996E+00  4504   0.451E+00    0.500E+01
DAV: 561    -0.165646358829E+04   -0.56665E+01   -0.20538E+00  5072   0.315E+00    0.469E+01
DAV: 562    -0.165371815180E+04    0.27454E+01   -0.15258E+00  4352   0.217E+00    0.500E+01
DAV: 563    -0.165554910788E+04   -0.18310E+01   -0.68757E-01  4656   0.135E+00    0.473E+01
DAV: 564    -0.165493298204E+04    0.61613E+00   -0.48910E-01  4320   0.134E+00    0.481E+01
DAV: 565    -0.165655046817E+04   -0.16175E+01   -0.52544E-01  4840   0.845E-01    0.502E+01
DAV: 566    -0.165838898611E+04   -0.18385E+01   -0.19213E-01  4536   0.689E-01    0.500E+01
DAV: 567    -0.165778985017E+04    0.59914E+00   -0.58014E-02  4816   0.474E-01    0.513E+01
DAV: 568    -0.165602552292E+04    0.17643E+01   -0.21249E-01  3776   0.482E-01    0.501E+01
DAV: 569    -0.165776918672E+04   -0.17437E+01   -0.12776E+00  4280   0.148E+00    0.519E+01
DAV: 570    -0.165599768033E+04    0.17715E+01   -0.31076E+00  4256   0.195E+00    0.489E+01
DAV: 571    -0.165521447610E+04    0.78320E+00   -0.12338E+00  4832   0.155E+00    0.468E+01
DAV: 572    -0.165742410168E+04   -0.22096E+01   -0.48891E-01  4808   0.121E+00    0.482E+01
DAV: 573    -0.165626282117E+04    0.11613E+01   -0.30299E-01  5200   0.731E-01    0.492E+01
DAV: 574    -0.164865757364E+04    0.76052E+01   -0.11195E+00  3936   0.134E+00    0.489E+01
DAV: 575    -0.164871354542E+04   -0.55972E-01   -0.24244E-01  5464   0.760E-01    0.469E+01
DAV: 576    -0.164948101386E+04   -0.76747E+00   -0.37200E-02  5312   0.260E-01    0.474E+01
DAV: 577    -0.164706814239E+04    0.24129E+01   -0.20023E-01  4080   0.439E-01    0.473E+01
DAV: 578    -0.164920636338E+04   -0.21382E+01   -0.19172E-01  4576   0.634E-01    0.473E+01
DAV: 579    -0.168032183698E+04   -0.31115E+02   -0.39415E+01  3672   0.552E+00    0.462E+01
DAV: 580    -0.168162906612E+04   -0.13072E+01   -0.33772E+00  5232   0.421E+00    0.486E+01
DAV: 581    -0.168216500935E+04   -0.53594E+00   -0.62046E-01  5040   0.108E+00    0.486E+01
DAV: 582    -0.168237166469E+04   -0.20666E+00   -0.90881E-02  5408   0.562E-01    0.502E+01
DAV: 583    -0.168237628177E+04   -0.46171E-02   -0.10028E-01  4768   0.104E+00    0.495E+01
DAV: 584    -0.168248038471E+04   -0.10410E+00   -0.65511E-01  4824   0.667E+00    0.575E+01
DAV: 585    -0.168271482707E+04   -0.23444E+00   -0.11608E+00  5176   0.500E+00    0.511E+01
DAV: 586    -0.168290034511E+04   -0.18552E+00   -0.28701E-01  4768   0.162E+00    0.488E+01
DAV: 587    -0.168290941680E+04   -0.90717E-02   -0.12344E-01  5496   0.158E+00    0.533E+01
DAV: 588    -0.168290797993E+04    0.14369E-02   -0.38668E-02  4872   0.533E-01    0.527E+01
DAV: 589    -0.168330888705E+04   -0.40091E+00   -0.95676E-01  4336   0.483E+00    0.552E+01
DAV: 590    -0.168312644785E+04    0.18244E+00   -0.66618E-01  4984   0.247E+00    0.512E+01
DAV: 591    -0.168297484391E+04    0.15160E+00   -0.43770E-01  5088   0.268E+00    0.580E+01
DAV: 592    -0.168297648007E+04   -0.16362E-02   -0.10555E-01  4792   0.465E-01    0.579E+01
DAV: 593    -0.168281625163E+04    0.16023E+00   -0.64085E-02  4888   0.746E-01    0.565E+01
DAV: 594    -0.168250010304E+04    0.31615E+00   -0.43417E-01  4248   0.258E+00    0.588E+01
DAV: 595    -0.168233325110E+04    0.16685E+00   -0.33933E-01  4768   0.273E+00    0.544E+01
DAV: 596    -0.168225898380E+04    0.74267E-01   -0.29815E-01  4368   0.201E+00    0.561E+01
DAV: 597    -0.168238578532E+04   -0.12680E+00   -0.26917E-01  5288   0.219E+00    0.543E+01
DAV: 598    -0.168248877470E+04   -0.10299E+00   -0.71627E-02  4720   0.622E-01    0.557E+01
DAV: 599    -0.168215470618E+04    0.33407E+00   -0.75952E+00  4176   0.935E+00    0.686E+01
DAV: 600    -0.168349389898E+04   -0.13392E+01   -0.23602E+00  5256   0.453E+00    0.578E+01
DAV: 601    -0.168375211621E+04   -0.25822E+00   -0.47549E-01  5168   0.284E+00    0.553E+01
DAV: 602    -0.167594881858E+04    0.78033E+01   -0.16468E+01  3704   0.552E+00    0.561E+01
DAV: 603    -0.167551930484E+04    0.42951E+00   -0.74971E-01  5304   0.132E+00    0.570E+01
DAV: 604    -0.167661170200E+04   -0.10924E+01   -0.45395E-01  4824   0.186E+00    0.588E+01
DAV: 605    -0.167777784555E+04   -0.11661E+01   -0.38677E-01  4816   0.142E+00    0.556E+01
DAV: 606    -0.167550777990E+04    0.22701E+01   -0.47710E-01  4096   0.116E+00    0.554E+01
DAV: 607    -0.167475051612E+04    0.75726E+00   -0.21081E-01  5016   0.697E-01    0.557E+01
DAV: 608    -0.167427878805E+04    0.47173E+00   -0.26740E-01  4376   0.115E+00    0.530E+01
DAV: 609    -0.165373409953E+04    0.20545E+02   -0.16122E+01  3704   0.399E+00    0.526E+01
DAV: 610    -0.165191187711E+04    0.18222E+01   -0.96705E-01  5024   0.141E+00    0.525E+01
DAV: 611    -0.164857192341E+04    0.33400E+01   -0.14686E+00  4704   0.944E-01    0.525E+01
DAV: 612    -0.164863772390E+04   -0.65800E-01   -0.21036E-01  4912   0.494E-01    0.521E+01
DAV: 613    -0.165010317538E+04   -0.14655E+01   -0.81983E-02  5008   0.226E-01    0.518E+01
DAV: 614    -0.163196290829E+04    0.18140E+02   -0.57403E+00  3840   0.343E+00    0.612E+01
DAV: 615    -0.163960212634E+04   -0.76392E+01   -0.13347E+00  4936   0.191E+00    0.556E+01
DAV: 616    -0.164245635250E+04   -0.28542E+01   -0.46332E-01  4904   0.764E-01    0.562E+01
DAV: 617    -0.164130189315E+04    0.11545E+01   -0.89511E-02  4936   0.349E-01    0.562E+01
DAV: 618    -0.163500868957E+04    0.62932E+01   -0.52612E-01  4240   0.101E+00    0.574E+01
DAV: 619    -0.165735001308E+04   -0.22341E+02   -0.71444E+00  4264   0.325E+00    0.597E+01
DAV: 620    -0.165784475133E+04   -0.49474E+00   -0.97034E-01  5352   0.201E+00    0.607E+01
DAV: 621    -0.166181720570E+04   -0.39725E+01   -0.57849E-01  4504   0.124E+00    0.599E+01
DAV: 622    -0.166230749631E+04   -0.49029E+00   -0.23280E-01  5328   0.909E-01    0.563E+01
DAV: 623    -0.166083171635E+04    0.14758E+01   -0.19832E-01  4872   0.154E+00    0.552E+01
DAV: 624    -0.167536806913E+04   -0.14536E+02   -0.91178E+00  3936   0.337E+00    0.557E+01
DAV: 625    -0.167665031250E+04   -0.12822E+01   -0.87394E-01  5288   0.117E+00    0.566E+01
DAV: 626    -0.167818230229E+04   -0.15320E+01   -0.93456E-01  4632   0.750E-01    0.589E+01
DAV: 627    -0.167661742761E+04    0.15649E+01   -0.93296E-01  4448   0.115E+00    0.561E+01
DAV: 628    -0.167077129258E+04    0.58461E+01   -0.47232E+00  4224   0.480E+00    0.492E+01
DAV: 629    -0.167011685049E+04    0.65444E+00   -0.43500E+00  4440   0.346E+00    0.517E+01
DAV: 630    -0.167023929169E+04   -0.12244E+00   -0.62894E-01  4912   0.910E-01    0.516E+01
DAV: 631    -0.167041839219E+04   -0.17910E+00   -0.42529E-02  5536   0.776E-01    0.508E+01
DAV: 632    -0.167058381368E+04   -0.16542E+00   -0.26783E-02  5152   0.685E-01    0.516E+01
DAV: 633    -0.167075406563E+04   -0.17025E+00   -0.73425E-02  4768   0.619E-01    0.511E+01
DAV: 634    -0.167420478895E+04   -0.34507E+01   -0.30347E+01  3720   0.668E+00    0.503E+01
DAV: 635    -0.166731101699E+04    0.68938E+01   -0.40852E+00  5344   0.269E+00    0.526E+01
DAV: 636    -0.166547055794E+04    0.18405E+01   -0.90669E-01  5048   0.115E+00    0.495E+01
DAV: 637    -0.166148023974E+04    0.39903E+01   -0.13824E+00  4736   0.259E+00    0.489E+01
DAV: 638    -0.166179484559E+04   -0.31461E+00   -0.19470E-01  5208   0.697E-01    0.487E+01
DAV: 639    -0.165749605639E+04    0.42988E+01   -0.25742E+00  4328   0.538E+00    0.515E+01
DAV: 640    -0.165468798150E+04    0.28081E+01   -0.18297E+00  5224   0.560E+00    0.454E+01
DAV: 641    -0.165313870190E+04    0.15493E+01   -0.66089E-01  5176   0.192E+00    0.506E+01
DAV: 642    -0.165752427181E+04   -0.43856E+01   -0.48283E-01  4760   0.139E+00    0.471E+01
DAV: 643    -0.165887161732E+04   -0.13473E+01   -0.14883E+00  4584   0.430E+00    0.514E+01
DAV: 644    -0.168007935524E+04   -0.21208E+02   -0.27841E+01  4184   0.529E+00    0.499E+01
DAV: 645    -0.168033377083E+04   -0.25442E+00   -0.24567E+00  5072   0.168E+00    0.511E+01
DAV: 646    -0.168010229147E+04    0.23148E+00   -0.11133E-01  5584   0.489E-01    0.491E+01
DAV: 647    -0.168111195344E+04   -0.10097E+01   -0.21866E-01  4560   0.596E-01    0.479E+01
DAV: 648    -0.168157342871E+04   -0.46148E+00   -0.15899E-01  4928   0.119E+00    0.487E+01
DAV: 649    -0.168102502288E+04    0.54841E+00   -0.61297E-01  4720   0.331E+00    0.447E+01
DAV: 650    -0.168169778556E+04   -0.67276E+00   -0.66644E-01  5056   0.331E+00    0.509E+01
DAV: 651    -0.168223060016E+04   -0.53281E+00   -0.31666E+00  5024   0.248E+00    0.518E+01
DAV: 652    -0.168211231231E+04    0.11829E+00   -0.22033E-01  4360   0.711E-01    0.515E+01
DAV: 653    -0.168206982582E+04    0.42486E-01   -0.73316E-02  5376   0.526E-01    0.516E+01
DAV: 654    -0.168252427772E+04   -0.45445E+00   -0.70401E-01  4344   0.162E+00    0.533E+01
DAV: 655    -0.168242301524E+04    0.10126E+00   -0.28008E-01  4720   0.931E-01    0.532E+01
DAV: 656    -0.168233730157E+04    0.85714E-01   -0.34128E-02  4736   0.313E-01    0.523E+01
DAV: 657    -0.168231834693E+04    0.18955E-01   -0.73166E-03  5224   0.224E-01    0.524E+01
DAV: 658    -0.168227933127E+04    0.39016E-01   -0.21063E-03  5160   0.120E-01    0.525E+01
DAV: 659    -0.168196029227E+04    0.31904E+00   -0.11499E+00  4152   0.240E+00    0.525E+01
DAV: 660    -0.168288190015E+04   -0.92161E+00   -0.79519E-01  4728   0.222E+00    0.519E+01
DAV: 661    -0.168326421514E+04   -0.38231E+00   -0.33000E-01  4248   0.100E+00    0.533E+01
DAV: 662    -0.168244547304E+04    0.81874E+00   -0.37688E-01  4016   0.118E+00    0.515E+01
DAV: 663    -0.168237082144E+04    0.74652E-01   -0.58776E-01  4792   0.738E-01    0.493E+01
DAV: 664    -0.168257271771E+04   -0.20190E+00   -0.15624E-01  4568   0.913E-01    0.491E+01
DAV: 665    -0.168312738441E+04   -0.55467E+00   -0.28008E+00  4656   0.137E+00    0.510E+01
DAV: 666    -0.168307541243E+04    0.51972E-01   -0.10049E-01  4016   0.472E-01    0.510E+01
DAV: 667    -0.168300118801E+04    0.74224E-01   -0.20546E-02  5504   0.289E-01    0.522E+01
DAV: 668    -0.168308630773E+04   -0.85120E-01   -0.50211E-02  4320   0.452E-01    0.529E+01
DAV: 669    -0.168287825512E+04    0.20805E+00   -0.10575E-01  4688   0.104E+00    0.515E+01
DAV: 670    -0.168290138589E+04   -0.23131E-01   -0.19113E-02  4312   0.194E-01    0.516E+01
DAV: 671    -0.168288968600E+04    0.11700E-01   -0.53805E-03  5520   0.271E-01    0.524E+01
DAV: 672    -0.168291679019E+04   -0.27104E-01   -0.75057E-01  3984   0.926E-01    0.525E+01
DAV: 673    -0.168365296415E+04   -0.73617E+00   -0.12359E+00  4360   0.116E+00    0.562E+01
DAV: 674    -0.168366883813E+04   -0.15874E-01   -0.28871E-01  4432   0.985E-01    0.564E+01
DAV: 675    -0.168401866205E+04   -0.34982E+00   -0.12975E-01  5008   0.748E-01    0.561E+01
DAV: 676    -0.168287402293E+04    0.11446E+01   -0.10427E+01  3872   0.134E+00    0.560E+01
DAV: 677    -0.168267412618E+04    0.19990E+00   -0.34583E-01  4400   0.697E-01    0.560E+01
DAV: 678    -0.168273617706E+04   -0.62051E-01   -0.30086E-02  5120   0.258E-01    0.558E+01
DAV: 679    -0.168360521676E+04   -0.86904E+00   -0.19434E+00  3480   0.136E+00    0.574E+01
DAV: 680    -0.168367951851E+04   -0.74302E-01   -0.44362E-01  4984   0.971E-01    0.550E+01
DAV: 681    -0.168383466117E+04   -0.15514E+00   -0.14952E-01  4696   0.307E-01    0.576E+01
DAV: 682    -0.168362688823E+04    0.20777E+00   -0.28047E-01  4080   0.167E-01    0.562E+01
DAV: 683    -0.168371945359E+04   -0.92565E-01   -0.47330E-02  4208   0.567E-01    0.557E+01
DAV: 684    -0.168275770841E+04    0.96175E+00   -0.23117E+00  4256   0.512E+00    0.579E+01
DAV: 685    -0.168234954651E+04    0.40816E+00   -0.62500E-01  5176   0.189E+00    0.623E+01
DAV: 686    -0.168197119651E+04    0.37835E+00   -0.21274E-01  4832   0.716E-01    0.582E+01
DAV: 687    -0.168190121191E+04    0.69985E-01   -0.23127E-01  4496   0.911E-01    0.564E+01
DAV: 688    -0.168133922526E+04    0.56199E+00   -0.50962E-01  4664   0.194E+00    0.569E+01
DAV: 689    -0.168267327491E+04   -0.13340E+01   -0.32147E+00  4632   0.597E+00    0.655E+01
DAV: 690    -0.168266434246E+04    0.89324E-02   -0.24738E+00  5336   0.103E+01    0.501E+01
DAV: 691    -0.168278732749E+04   -0.12299E+00   -0.35604E-01  4744   0.225E+00    0.576E+01
DAV: 692    -0.168253455729E+04    0.25277E+00   -0.10737E-01  5064   0.544E-01    0.569E+01
DAV: 693    -0.168244578502E+04    0.88772E-01   -0.27342E-02  5112   0.355E-01    0.569E+01
DAV: 694    -0.168229973131E+04    0.14605E+00   -0.17001E+00  4192   0.232E+00    0.558E+01
DAV: 695    -0.168251726596E+04   -0.21753E+00   -0.23713E-01  4584   0.113E+00    0.522E+01
DAV: 696    -0.168249561209E+04    0.21654E-01   -0.31597E-02  5128   0.418E-01    0.510E+01
DAV: 697    -0.168249630324E+04   -0.69116E-03   -0.47879E-02  4832   0.661E-01    0.509E+01
DAV: 698    -0.168250531971E+04   -0.90165E-02   -0.12980E-02  4520   0.178E-01    0.512E+01
DAV: 699    -0.168243507457E+04    0.70245E-01   -0.25174E-01  4088   0.147E+00    0.505E+01
DAV: 700    -0.168248520901E+04   -0.50134E-01   -0.72482E-02  4504   0.403E-01    0.509E+01
DAV: 701    -0.168245840440E+04    0.26805E-01   -0.10363E-02  5280   0.227E-01    0.501E+01
DAV: 702    -0.168242113539E+04    0.37269E-01   -0.91293E-03  4928   0.217E-01    0.500E+01
DAV: 703    -0.168243530051E+04   -0.14165E-01   -0.29012E-03  4928   0.796E-02    0.501E+01
DAV: 704    -0.168254043608E+04   -0.10514E+00   -0.51233E-02  4304   0.808E-01    0.515E+01
DAV: 705    -0.168256521319E+04   -0.24777E-01   -0.60497E-02  4880   0.120E+00    0.493E+01
DAV: 706    -0.168254873775E+04    0.16475E-01   -0.11543E-01  4048   0.881E-01    0.504E+01
DAV: 707    -0.168261778119E+04   -0.69043E-01   -0.68420E-02  5040   0.105E+00    0.488E+01
DAV: 708    -0.168260885786E+04    0.89233E-02   -0.98053E-02  4312   0.925E-01    0.493E+01
DAV: 709    -0.168226653679E+04    0.34232E+00   -0.46303E-01  4728   0.233E+00    0.532E+01
DAV: 710    -0.168189529355E+04    0.37124E+00   -0.27655E-01  4880   0.149E+00    0.506E+01
DAV: 711    -0.167992530706E+04    0.19700E+01   -0.22604E+00  3832   0.174E+00    0.525E+01
DAV: 712    -0.167971827577E+04    0.20703E+00   -0.17311E-01  5112   0.547E-01    0.507E+01
DAV: 713    -0.167996523319E+04   -0.24696E+00   -0.58578E-02  4864   0.343E-01    0.509E+01
DAV: 714    -0.167598938054E+04    0.39759E+01   -0.50407E+00  3880   0.374E+00    0.521E+01
DAV: 715    -0.167042941146E+04    0.55600E+01   -0.43035E+00  4304   0.195E+00    0.511E+01
DAV: 716    -0.166976301927E+04    0.66639E+00   -0.40819E-01  5088   0.787E-01    0.502E+01
DAV: 717    -0.166967151698E+04    0.91502E-01   -0.25882E-02  5544   0.278E-01    0.503E+01
DAV: 718    -0.166964012337E+04    0.31394E-01   -0.29878E-03  5224   0.986E-02    0.506E+01
DAV: 719    -0.166879306164E+04    0.84706E+00   -0.62446E-01  4200   0.206E+00    0.525E+01
DAV: 720    -0.166356554145E+04    0.52275E+01   -0.14308E+00  3912   0.137E+00    0.519E+01
DAV: 721    -0.165790922359E+04    0.56563E+01   -0.16170E+00  4640   0.106E+00    0.517E+01
DAV: 722    -0.165773605304E+04    0.17317E+00   -0.20076E-01  5024   0.407E-01    0.512E+01
DAV: 723    -0.166076919367E+04   -0.30331E+01   -0.73634E-01  4696   0.757E-01    0.498E+01
DAV: 724    -0.165549869910E+04    0.52705E+01   -0.50912E+00  4080   0.367E+00    0.543E+01
DAV: 725    -0.165232539001E+04    0.31733E+01   -0.15446E+00  5016   0.157E+00    0.573E+01
DAV: 726    -0.165353335024E+04   -0.12080E+01   -0.23453E-01  4912   0.669E-01    0.531E+01
DAV: 727    -0.165251751175E+04    0.10158E+01   -0.52529E+00  4352   0.253E+00    0.491E+01
DAV: 728    -0.165212898819E+04    0.38852E+00   -0.55022E-01  4936   0.852E-01    0.498E+01
DAV: 729    -0.165212111378E+04    0.78744E-02   -0.78585E-01  5032   0.359E+00    0.590E+01
DAV: 730    -0.166261964167E+04   -0.10499E+02   -0.84905E+00  4344   0.318E+00    0.504E+01
DAV: 731    -0.166500270587E+04   -0.23831E+01   -0.16411E+00  5080   0.224E+00    0.502E+01
DAV: 732    -0.166505630039E+04   -0.53595E-01   -0.36218E-01  4952   0.193E+00    0.467E+01
DAV: 733    -0.166603531053E+04   -0.97901E+00   -0.35530E-01  5216   0.140E+00    0.459E+01
DAV: 734    -0.167200767026E+04   -0.59724E+01   -0.16419E+00  4608   0.379E+00    0.550E+01
DAV: 735    -0.167193544726E+04    0.72223E-01   -0.18704E-01  4936   0.540E-01    0.554E+01
DAV: 736    -0.167250569317E+04   -0.57025E+00   -0.41661E-02  5072   0.446E-01    0.541E+01
DAV: 737    -0.167327560311E+04   -0.76991E+00   -0.48405E-02  4736   0.381E-01    0.531E+01
DAV: 738    -0.167335781803E+04   -0.82215E-01   -0.86134E-03  5096   0.113E-01    0.534E+01
DAV: 739    -0.168254281258E+04   -0.91850E+01   -0.13149E+01  3832   0.385E+00    0.593E+01
DAV: 740    -0.168223681973E+04    0.30599E+00   -0.10257E+00  5072   0.478E+00    0.507E+01
DAV: 741    -0.168220750194E+04    0.29318E-01   -0.39976E-01  5104   0.145E+00    0.556E+01
DAV: 742    -0.168208901282E+04    0.11849E+00   -0.77972E-02  5384   0.686E-01    0.518E+01
DAV: 743    -0.168202526859E+04    0.63744E-01   -0.30816E-02  5088   0.445E-01    0.509E+01
DAV: 744    -0.167570803703E+04    0.63172E+01   -0.77156E+00  3816   0.445E+00    0.544E+01
DAV: 745    -0.167556283606E+04    0.14520E+00   -0.10093E+00  5392   0.405E+00    0.474E+01
DAV: 746    -0.167506482936E+04    0.49801E+00   -0.39208E-01  4856   0.747E-01    0.465E+01
DAV: 747    -0.167376279142E+04    0.13020E+01   -0.11444E+00  5000   0.105E+00    0.518E+01
DAV: 748    -0.167333323873E+04    0.42955E+00   -0.19650E-01  3880   0.461E-01    0.532E+01
DAV: 749    -0.167551892012E+04   -0.21857E+01   -0.54532E-01  4544   0.200E+00    0.562E+01
DAV: 750    -0.167500722789E+04    0.51169E+00   -0.11536E-01  4960   0.515E-01    0.553E+01
DAV: 751    -0.167516196648E+04   -0.15474E+00   -0.20285E-02  5184   0.243E-01    0.542E+01
DAV: 752    -0.167520516545E+04   -0.43199E-01   -0.12197E-02  5128   0.404E-01    0.552E+01
DAV: 753    -0.167484559963E+04    0.35957E+00   -0.15178E-01  4080   0.491E-01    0.563E+01
DAV: 754    -0.166783747702E+04    0.70081E+01   -0.35392E+00  3992   0.273E+00    0.559E+01
DAV: 755    -0.167301760473E+04   -0.51801E+01   -0.31550E+00  4968   0.237E+00    0.508E+01
DAV: 756    -0.167246950548E+04    0.54810E+00   -0.29308E-01  4432   0.146E+00    0.556E+01
DAV: 757    -0.167197804542E+04    0.49146E+00   -0.23780E-01  4880   0.734E-01    0.540E+01
DAV: 758    -0.167054075646E+04    0.14373E+01   -0.40185E-01  4448   0.111E+00    0.556E+01
DAV: 759    -0.168203549339E+04   -0.11495E+02   -0.13214E+01  3736   0.434E+00    0.540E+01
DAV: 760    -0.168203891729E+04   -0.34239E-02   -0.89863E-01  5424   0.245E+00    0.587E+01
DAV: 761    -0.168173234914E+04    0.30657E+00   -0.25675E-01  5208   0.187E+00    0.528E+01
DAV: 762    -0.168155349113E+04    0.17886E+00   -0.22801E-01  4872   0.139E+00    0.515E+01
DAV: 763    -0.168169512870E+04   -0.14164E+00   -0.80403E-02  5032   0.689E-01    0.514E+01
DAV: 764    -0.168301450688E+04   -0.13194E+01   -0.41682E+00  4016   0.343E+00    0.528E+01
DAV: 765    -0.168310530232E+04   -0.90795E-01   -0.42405E-01  4944   0.161E+00    0.493E+01
DAV: 766    -0.168309186921E+04    0.13433E-01   -0.22383E-01  4808   0.105E+00    0.519E+01
DAV: 767    -0.168314330480E+04   -0.51436E-01   -0.10605E-01  5120   0.135E+00    0.489E+01
DAV: 768    -0.168300526694E+04    0.13804E+00   -0.98283E-02  4976   0.104E+00    0.483E+01
DAV: 769    -0.168297304920E+04    0.32218E-01   -0.35346E-01  4800   0.523E+00    0.574E+01
DAV: 770    -0.168277548708E+04    0.19756E+00   -0.21910E-01  5224   0.186E+00    0.528E+01
DAV: 771    -0.168272328147E+04    0.52206E-01   -0.38331E-02  5392   0.144E+00    0.508E+01
DAV: 772    -0.168274957345E+04   -0.26292E-01   -0.79335E-02  5096   0.697E-01    0.530E+01
DAV: 773    -0.168266750960E+04    0.82064E-01   -0.30281E-02  5160   0.471E-01    0.533E+01
DAV: 774    -0.168274951849E+04   -0.82009E-01   -0.46154E-01  4264   0.141E+00    0.535E+01
DAV: 775    -0.168279108824E+04   -0.41570E-01   -0.60233E-02  5048   0.618E-01    0.562E+01
DAV: 776    -0.168272447350E+04    0.66615E-01   -0.20488E-02  5208   0.105E+00    0.527E+01
DAV: 777    -0.168251137989E+04    0.21309E+00   -0.68192E-02  4728   0.213E+00    0.509E+01
DAV: 778    -0.168264203879E+04   -0.13066E+00   -0.48618E-02  4616   0.796E-01    0.504E+01
DAV: 779    -0.168261819517E+04    0.23844E-01   -0.18463E+00  4112   0.330E+00    0.503E+01
DAV: 780    -0.168291337654E+04   -0.29518E+00   -0.39571E-01  5008   0.146E+00    0.480E+01
DAV: 781    -0.168283726638E+04    0.76110E-01   -0.81610E-02  5200   0.171E+00    0.453E+01
DAV: 782    -0.168286428704E+04   -0.27021E-01   -0.59516E-02  5256   0.101E+00    0.481E+01
DAV: 783    -0.168286443803E+04   -0.15099E-03   -0.19657E-02  4912   0.215E-01    0.479E+01
DAV: 784    -0.168288381215E+04   -0.19374E-01   -0.61351E-01  4416   0.587E+00    0.563E+01
DAV: 785    -0.168275845181E+04    0.12536E+00   -0.28438E-01  5344   0.473E+00    0.468E+01
DAV: 786    -0.168284959498E+04   -0.91143E-01   -0.19803E-01  5232   0.265E+00    0.539E+01
DAV: 787    -0.168283322486E+04    0.16370E-01   -0.82693E-02  5280   0.814E-01    0.500E+01
DAV: 788    -0.168290805269E+04   -0.74828E-01   -0.11256E-01  4648   0.106E+00    0.505E+01
DAV: 789    -0.168291395020E+04   -0.58975E-02   -0.95038E-02  4632   0.103E+00    0.485E+01
DAV: 790    -0.168285881465E+04    0.55136E-01   -0.70560E-02  4792   0.120E+00    0.467E+01
DAV: 791    -0.168276526592E+04    0.93549E-01   -0.14163E-01  4672   0.121E+00    0.465E+01
DAV: 792    -0.168271260290E+04    0.52663E-01   -0.81751E-02  5328   0.913E-01    0.453E+01
DAV: 793    -0.168267035285E+04    0.42250E-01   -0.11223E-01  4768   0.104E+00    0.471E+01
DAV: 794    -0.168269713198E+04   -0.26779E-01   -0.14240E-01  4400   0.118E+00    0.500E+01
DAV: 795    -0.168257411774E+04    0.12301E+00   -0.91267E-02  4248   0.110E+00    0.495E+01
DAV: 796    -0.168257869452E+04   -0.45768E-02   -0.37906E-02  4992   0.358E-01    0.483E+01
DAV: 797    -0.168259219346E+04   -0.13499E-01   -0.53314E-03  5216   0.166E-01    0.485E+01
DAV: 798    -0.168258842121E+04    0.37723E-02   -0.28984E-03  5224   0.143E-01    0.480E+01
DAV: 799    -0.168261541627E+04   -0.26995E-01   -0.13582E+00  4112   0.436E+00    0.542E+01
DAV: 800    -0.168281303882E+04   -0.19762E+00   -0.51855E-01  5264   0.285E+00    0.470E+01
DAV: 801    -0.168286795496E+04   -0.54916E-01   -0.12222E-01  4904   0.650E-01    0.488E+01
DAV: 802    -0.168283786464E+04    0.30090E-01   -0.36779E-02  4976   0.499E-01    0.474E+01
DAV: 803    -0.168276314729E+04    0.74717E-01   -0.20205E-01  4672   0.108E+00    0.463E+01
DAV: 804    -0.168285199212E+04   -0.88845E-01   -0.38480E-01  4888   0.159E+00    0.499E+01
DAV: 805    -0.168281685912E+04    0.35133E-01   -0.74981E-02  3984   0.385E-01    0.495E+01
DAV: 806    -0.168273337178E+04    0.83487E-01   -0.27600E-02  5288   0.765E-01    0.479E+01
DAV: 807    -0.168257291778E+04    0.16045E+00   -0.41555E-01  4216   0.158E+00    0.485E+01
DAV: 808    -0.168235879055E+04    0.21413E+00   -0.38459E-01  4784   0.244E+00    0.481E+01
DAV: 809    -0.168240575171E+04   -0.46961E-01   -0.47398E-01  4880   0.804E-01    0.474E+01
DAV: 810    -0.168244316388E+04   -0.37412E-01   -0.23429E-01  4928   0.157E+00    0.472E+01
DAV: 811    -0.168240269210E+04    0.40472E-01   -0.98635E-02  4720   0.115E+00    0.462E+01
DAV: 812    -0.168239577514E+04    0.69170E-02   -0.99172E-02  5016   0.655E-01    0.469E+01
DAV: 813    -0.168238568627E+04    0.10089E-01   -0.25287E-02  5464   0.265E-01    0.468E+01
DAV: 814    -0.168249484529E+04   -0.10916E+00   -0.71402E-01  4168   0.224E+00    0.459E+01
DAV: 815    -0.168256855117E+04   -0.73706E-01   -0.19662E-01  5160   0.122E+00    0.472E+01
DAV: 816    -0.168245931072E+04    0.10924E+00   -0.14544E-01  4856   0.173E+00    0.465E+01
DAV: 817    -0.168228544102E+04    0.17387E+00   -0.21144E-01  5080   0.193E+00    0.472E+01
DAV: 818    -0.168235348619E+04   -0.68045E-01   -0.85735E-02  4672   0.432E-01    0.468E+01
DAV: 819    -0.168238206994E+04   -0.28584E-01   -0.48735E-01  4760   0.293E+00    0.501E+01
DAV: 820    -0.168227622778E+04    0.10584E+00   -0.23522E-01  4752   0.223E+00    0.472E+01
DAV: 821    -0.168216261868E+04    0.11361E+00   -0.93749E-02  4768   0.870E-01    0.471E+01
DAV: 822    -0.168202179315E+04    0.14083E+00   -0.61108E-02  5080   0.762E-01    0.478E+01
DAV: 823    -0.168195280158E+04    0.68992E-01   -0.43783E-02  5168   0.788E-01    0.486E+01
DAV: 824    -0.168189220638E+04    0.60595E-01   -0.18957E+00  4144   0.616E+00    0.553E+01
DAV: 825    -0.168213641245E+04   -0.24421E+00   -0.49242E-01  5024   0.176E+00    0.505E+01
DAV: 826    -0.168077181756E+04    0.13646E+01   -0.84348E-01  4464   0.241E+00    0.488E+01
DAV: 827    -0.167752968795E+04    0.32421E+01   -0.32685E+00  4008   0.177E+00    0.501E+01
DAV: 828    -0.167582124617E+04    0.17084E+01   -0.49457E-01  5416   0.806E-01    0.491E+01
DAV: 829    -0.166651166013E+04    0.93096E+01   -0.53350E+00  4104   0.366E+00    0.543E+01
DAV: 830    -0.166469714204E+04    0.18145E+01   -0.47568E-01  4976   0.104E+00    0.560E+01
DAV: 831    -0.167487712668E+04   -0.10180E+02   -0.52973E+00  4192   0.282E+00    0.528E+01
DAV: 832    -0.167323318028E+04    0.16439E+01   -0.10657E+00  4952   0.126E+00    0.523E+01
DAV: 833    -0.167182949096E+04    0.14037E+01   -0.60965E-01  4552   0.127E+00    0.512E+01
DAV: 834    -0.167529172323E+04   -0.34622E+01   -0.16432E+00  4400   0.179E+00    0.511E+01
[...]
DAV: ***    -0.168311175890E+04    0.57844E-04   -0.61741E-06  4656   0.542E-02    0.479E-01
DAV: ***    -0.168311180720E+04   -0.48298E-04   -0.17165E-05  4568   0.152E-02    0.466E-01
DAV: ***    -0.168311189294E+04   -0.85738E-04   -0.18949E-05  4352   0.618E-02    0.443E-01
DAV: ***    -0.168311194087E+04   -0.47933E-04   -0.41777E-06  5104   0.336E-02    0.433E-01
DAV: ***    -0.168311199455E+04   -0.53680E-04   -0.33617E-05  4032   0.145E-01    0.425E-01
DAV: ***    -0.168311208736E+04   -0.92810E-04   -0.22971E-05  4296   0.257E-02    0.419E-01
DAV: ***    -0.168311207933E+04    0.80256E-05   -0.34540E-06  4888   0.130E-02    0.405E-01
DAV: ***    -0.168311123309E+04    0.84624E-03   -0.18131E-04  4064   0.247E-01    0.377E-01
DAV: ***    -0.168311171919E+04   -0.48610E-03   -0.60927E-05  4304   0.303E-02    0.380E-01
DAV: ***    -0.168311178327E+04   -0.64072E-04   -0.20649E-05  4792   0.101E-02    0.366E-01
DAV: ***    -0.168311179319E+04   -0.99202E-05   -0.22673E-06  5368   0.441E-03    0.354E-01
DAV: ***    -0.168311178668E+04    0.65115E-05   -0.35904E-07  4248   0.536E-03    0.354E-01
DAV: ***    -0.168311184638E+04   -0.59700E-04   -0.57813E-06  4168   0.416E-02    0.352E-01
DAV: ***    -0.168311187244E+04   -0.26065E-04   -0.13003E-06  4600   0.249E-02    0.355E-01
DAV: ***    -0.168311185655E+04    0.15892E-04   -0.20346E-06  4208   0.874E-03    0.359E-01
DAV: ***    -0.168311188299E+04   -0.26440E-04   -0.14689E-06  4376   0.202E-02    0.357E-01
DAV: ***    -0.168311193203E+04   -0.49042E-04   -0.47814E-06  4200   0.455E-02    0.353E-01
DAV: ***    -0.168311195912E+04   -0.27085E-04   -0.80317E-05  4032   0.220E-01    0.344E-01
DAV: ***    -0.168311216783E+04   -0.20872E-03   -0.41893E-05  4152   0.294E-02    0.366E-01
DAV: ***    -0.168311217139E+04   -0.35572E-05   -0.11177E-05  4696   0.884E-03    0.366E-01
DAV: ***    -0.168311217348E+04   -0.20917E-05   -0.11304E-06  5520   0.696E-03    0.366E-01
DAV: ***    -0.168311218026E+04   -0.67797E-05   -0.27056E-07  4792   0.647E-03    0.368E-01
DAV: ***    -0.168311203887E+04    0.14139E-03   -0.16898E-05  4048   0.765E-02    0.360E-01
DAV: ***    -0.168311206904E+04   -0.30180E-04   -0.40764E-06  4824   0.265E-02    0.359E-01
DAV: ***    -0.168311209618E+04   -0.27138E-04   -0.42299E-06  4232   0.107E-02    0.350E-01
DAV: ***    -0.168311196508E+04    0.13110E-03   -0.14159E-05  4128   0.750E-02    0.359E-01
DAV: ***    -0.168311201534E+04   -0.50255E-04   -0.50956E-06  4464   0.110E-02    0.361E-01
DAV: ***    -0.168311178953E+04    0.22581E-03   -0.26933E-05  4064   0.102E-01    0.373E-01
DAV: ***    -0.168311148642E+04    0.30311E-03   -0.34494E-05  4512   0.135E-01    0.377E-01
DAV: ***    -0.168311109257E+04    0.39385E-03   -0.35760E-05  4256   0.172E-01    0.388E-01
DAV: ***    -0.168311147839E+04   -0.38582E-03   -0.58944E-05  4096   0.292E-02    0.377E-01
DAV: ***    -0.168311152964E+04   -0.51259E-04   -0.17088E-05  4992   0.967E-03    0.365E-01
DAV: ***    -0.168311119844E+04    0.33121E-03   -0.32026E-05  4264   0.114E-01    0.376E-01
DAV: ***    -0.168311147233E+04   -0.27390E-03   -0.34061E-05  4280   0.550E-02    0.366E-01
DAV: ***    -0.168311146214E+04    0.10188E-04   -0.55924E-06  5000   0.965E-03    0.375E-01
DAV: ***    -0.168311146601E+04   -0.38647E-05   -0.15367E-06  5224   0.371E-03    0.370E-01
DAV: ***    -0.168311146106E+04    0.49480E-05   -0.22240E-07  4120   0.305E-03    0.371E-01
DAV: ***    -0.168311141539E+04    0.45674E-04   -0.25638E-04  4080   0.287E-01    0.393E-01
DAV: ***    -0.168311182050E+04   -0.40511E-03   -0.80452E-05  4264   0.445E-02    0.373E-01
DAV: ***    -0.168311191313E+04   -0.92626E-04   -0.15800E-05  4800   0.100E-01    0.397E-01
DAV: ***    -0.168311200870E+04   -0.95570E-04   -0.13175E-05  4568   0.110E-01    0.399E-01
DAV: ***    -0.168311204390E+04   -0.35204E-04   -0.59933E-05  4096   0.219E-01    0.394E-01
DAV: ***    -0.168311229988E+04   -0.25597E-03   -0.44881E-05  4472   0.590E-02    0.368E-01
DAV: ***    -0.168311231901E+04   -0.19136E-04   -0.40566E-05  4120   0.182E-01    0.395E-01
DAV: ***    -0.168311249921E+04   -0.18019E-03   -0.56668E-05  4416   0.230E-02    0.377E-01
DAV: ***    -0.168311249184E+04    0.73654E-05   -0.18169E-05  5096   0.219E-02    0.422E-01
DAV: ***    -0.168311246716E+04    0.24680E-04   -0.17995E-06  5136   0.213E-02    0.424E-01
DAV: ***    -0.168311252645E+04   -0.59290E-04   -0.21465E-05  4024   0.976E-02    0.419E-01
DAV: ***    -0.168311254003E+04   -0.13581E-04   -0.10612E-05  4144   0.231E-02    0.434E-01
DAV: ***    -0.168311258134E+04   -0.41310E-04   -0.89142E-06  4392   0.645E-02    0.431E-01
DAV: ***    -0.168311260440E+04   -0.23057E-04   -0.19031E-05  4128   0.117E-01    0.440E-01
DAV: ***    -0.168311269452E+04   -0.90121E-04   -0.87367E-06  4432   0.681E-02    0.451E-01
DAV: ***    -0.168311219119E+04    0.50333E-03   -0.21227E-04  4080   0.340E-01    0.510E-01
DAV: ***    -0.168311241619E+04   -0.22500E-03   -0.88149E-05  5104   0.265E-01    0.560E-01
DAV: ***    -0.168311297532E+04   -0.55913E-03   -0.89522E-05  4536   0.990E-02    0.545E-01
DAV: ***    -0.168311304743E+04   -0.72111E-04   -0.18521E-05  5064   0.108E-01    0.569E-01
DAV: ***    -0.168311310980E+04   -0.62370E-04   -0.19986E-05  4936   0.841E-02    0.573E-01
DAV: ***    -0.168311313202E+04   -0.22216E-04   -0.12096E-05  4912   0.894E-02    0.580E-01
DAV: ***    -0.168311321266E+04   -0.80640E-04   -0.95797E-05  4288   0.154E-02    0.595E-01
DAV: ***    -0.168311321317E+04   -0.50888E-06   -0.57611E-06  5304   0.421E-02    0.633E-01
DAV: ***    -0.168311322496E+04   -0.11790E-04   -0.34523E-06  5024   0.265E-02    0.637E-01
DAV: ***    -0.168311323328E+04   -0.83256E-05   -0.95457E-06  4992   0.516E-03    0.659E-01
DAV: ***    -0.168311323774E+04   -0.44542E-05   -0.32457E-06  4544   0.218E-02    0.661E-01
DAV: ***    -0.168311323587E+04    0.18610E-05   -0.45498E-06  4392   0.437E-02    0.668E-01
DAV: ***    -0.168311323064E+04    0.52309E-05   -0.38840E-06  4224   0.544E-02    0.674E-01
DAV: ***    -0.168311325219E+04   -0.21544E-04   -0.60293E-06  4360   0.210E-02    0.681E-01
DAV: ***    -0.168311325204E+04    0.15129E-06   -0.12660E-06  4872   0.220E-03    0.677E-01
DAV: ***    -0.168311324046E+04    0.11572E-04   -0.47393E-06  4264   0.280E-02    0.677E-01
DAV: ***    -0.168311324373E+04   -0.32664E-05   -0.17920E-06  4280   0.312E-03    0.672E-01
DAV: ***    -0.168311324247E+04    0.12560E-05   -0.30982E-07  4336   0.774E-03    0.670E-01
DAV: ***    -0.168311308493E+04    0.15754E-03   -0.32085E-05  4072   0.133E-01    0.647E-01
DAV: ***    -0.168311317418E+04   -0.89249E-04   -0.80670E-06  4696   0.435E-02    0.638E-01
DAV: ***    -0.168311319810E+04   -0.23921E-04   -0.83875E-06  4440   0.272E-02    0.663E-01
DAV: ***    -0.168311320635E+04   -0.82498E-05   -0.14495E-05  4416   0.537E-02    0.663E-01
DAV: ***    -0.168311319336E+04    0.12996E-04   -0.96413E-06  4160   0.821E-02    0.693E-01
DAV: ***    -0.168311322237E+04   -0.29016E-04   -0.18171E-05  4248   0.595E-02    0.689E-01
DAV: ***    -0.168311323043E+04   -0.80592E-05   -0.33176E-06  4824   0.145E-02    0.682E-01
DAV: ***    -0.168310179282E+04    0.11438E-01   -0.21277E-03  4096   0.122E+00    0.587E-01
DAV: ***    -0.168311270129E+04   -0.10908E-01   -0.85035E-04  4304   0.243E-01    0.518E-01
DAV: ***    -0.168311259708E+04    0.10421E-03   -0.18446E-04  4704   0.244E-01    0.559E-01
DAV: ***    -0.168311284914E+04   -0.25206E-03   -0.10584E-04  4224   0.504E-02    0.588E-01
DAV: ***    -0.168311284916E+04   -0.23734E-07   -0.20998E-05  5288   0.248E-02    0.584E-01
DAV: ***    -0.168311285175E+04   -0.25924E-05   -0.24317E-05  4256   0.103E-01    0.577E-01
DAV: ***    -0.168311293506E+04   -0.83310E-04   -0.15864E-05  4256   0.145E-02    0.561E-01
DAV: ***    -0.168311289916E+04    0.35906E-04   -0.16539E-05  4448   0.561E-02    0.582E-01
DAV: ***    -0.168311290788E+04   -0.87201E-05   -0.29784E-06  4560   0.868E-03    0.591E-01
DAV: ***    -0.168311291259E+04   -0.47136E-05   -0.20080E-06  4688   0.866E-03    0.575E-01
DAV: ***    -0.168311289777E+04    0.14821E-04   -0.82746E-06  4392   0.246E-02    0.574E-01
DAV: ***    -0.168311290764E+04   -0.98698E-05   -0.47166E-06  4488   0.252E-02    0.574E-01
DAV: ***    -0.168311291473E+04   -0.70853E-05   -0.13566E-06  4744   0.152E-02    0.576E-01
DAV: ***    -0.168311292051E+04   -0.57834E-05   -0.16713E-06  4856   0.138E-02    0.570E-01
DAV: ***    -0.168311292275E+04   -0.22396E-05   -0.13998E-06  4224   0.226E-03    0.571E-01
DAV: ***    -0.168311277827E+04    0.14448E-03   -0.26131E-05  4024   0.101E-01    0.572E-01
DAV: ***    -0.168311287349E+04   -0.95213E-04   -0.16175E-05  4192   0.248E-02    0.571E-01
DAV: ***    -0.168311286457E+04    0.89133E-05   -0.21783E-06  4552   0.158E-02    0.581E-01
DAV: ***    -0.168311286383E+04    0.73739E-06   -0.11797E-06  5056   0.784E-03    0.584E-01
DAV: ***    -0.168311285341E+04    0.10425E-04   -0.55133E-07  4472   0.149E-02    0.587E-01
DAV: ***    -0.168311284472E+04    0.86927E-05   -0.28159E-06  4384   0.173E-02    0.570E-01
DAV: ***    -0.168311284896E+04   -0.42456E-05   -0.95807E-07  4456   0.328E-03    0.572E-01
DAV: ***    -0.168311284175E+04    0.72146E-05   -0.22664E-07  3952   0.104E-02    0.570E-01
DAV: ***    -0.168311268628E+04    0.15547E-03   -0.22563E-05  4056   0.980E-02    0.589E-01
DAV: ***    -0.168311277029E+04   -0.84014E-04   -0.10457E-05  4072   0.115E-02    0.595E-01
DAV: ***    -0.168311168680E+04    0.10835E-02   -0.40761E-04  4136   0.459E-01    0.551E-01
DAV: ***    -0.168311296394E+04   -0.12771E-02   -0.13578E-04  4280   0.543E-02    0.577E-01
DAV: ***    -0.168311305018E+04   -0.86235E-04   -0.43409E-05  4560   0.175E-02    0.611E-01
DAV: ***    -0.168311303008E+04    0.20101E-04   -0.20176E-05  4656   0.700E-02    0.599E-01
DAV: ***    -0.168311306206E+04   -0.31978E-04   -0.10385E-05  4952   0.402E-02    0.599E-01
DAV: ***    -0.168311302684E+04    0.35214E-04   -0.18820E-05  4088   0.964E-02    0.606E-01
DAV: ***    -0.168311312282E+04   -0.95981E-04   -0.25215E-05  4280   0.168E-02    0.586E-01
DAV: ***    -0.168311313334E+04   -0.10518E-04   -0.31101E-06  5528   0.172E-02    0.590E-01
DAV: ***    -0.168311314011E+04   -0.67727E-05   -0.31919E-06  5296   0.776E-03    0.582E-01
DAV: ***    -0.168311313501E+04    0.51015E-05   -0.32026E-06  4872   0.913E-03    0.607E-01
DAV: ***    -0.168311281076E+04    0.32425E-03   -0.15322E-04  4040   0.259E-01    0.626E-01
DAV: ***    -0.168311314267E+04   -0.33191E-03   -0.12347E-04  4464   0.122E-01    0.651E-01
DAV: ***    -0.168311319904E+04   -0.56374E-04   -0.20187E-05  4344   0.113E-02    0.605E-01
DAV: ***    -0.168311319852E+04    0.52873E-06   -0.32145E-06  4872   0.153E-02    0.570E-01
DAV: ***    -0.168311319488E+04    0.36383E-05   -0.41692E-06  4888   0.113E-02    0.501E-01
DAV: ***    -0.168311286490E+04    0.32998E-03   -0.13951E-04  4104   0.248E-01    0.630E-01
DAV: ***    -0.168311323384E+04   -0.36894E-03   -0.11892E-04  4296   0.109E-01    0.665E-01
DAV: ***    -0.168311319726E+04    0.36586E-04   -0.33814E-05  4344   0.865E-02    0.600E-01
DAV: ***    -0.168311325522E+04   -0.57959E-04   -0.11040E-05  4552   0.279E-02    0.511E-01
DAV: ***    -0.168311326662E+04   -0.11404E-04   -0.55671E-06  4880   0.276E-02    0.424E-01
DAV: ***    -0.168311325757E+04    0.90553E-05   -0.16437E-05  4600   0.405E-02    0.312E-01
DAV: ***    -0.168311328437E+04   -0.26805E-04   -0.14997E-05  4672   0.203E-02    0.293E-01
DAV: ***    -0.168311328912E+04   -0.47489E-05   -0.54181E-06  5400   0.811E-03    0.286E-01
DAV: ***    -0.168311329180E+04   -0.26785E-05   -0.21075E-06  4952   0.811E-03    0.286E-01
DAV: ***    -0.168311328699E+04    0.48073E-05   -0.46401E-06  4440   0.239E-02    0.297E-01
DAV: ***    -0.168311310557E+04    0.18142E-03   -0.77599E-05  3968   0.108E-01    0.184E-01
DAV: ***    -0.168311326340E+04   -0.15784E-03   -0.42880E-05  4408   0.316E-02    0.144E-01
DAV: ***    -0.168311326703E+04   -0.36304E-05   -0.81850E-06  4968   0.917E-03    0.152E-01
DAV: ***    -0.168311326930E+04   -0.22682E-05   -0.26285E-06  4848   0.135E-02    0.153E-01
DAV: ***    -0.168311327215E+04   -0.28470E-05   -0.10032E-06  5152   0.679E-03    0.146E-01
DAV: ***    -0.168311324957E+04    0.22581E-04   -0.42645E-05  4200   0.426E-02    0.303E-01
DAV: ***    -0.168311326968E+04   -0.20114E-04   -0.19519E-05  4568   0.356E-02    0.254E-01
DAV: ***    -0.168311327584E+04   -0.61563E-05   -0.67682E-06  4864   0.210E-02    0.219E-01
DAV: ***    -0.168311327972E+04   -0.38773E-05   -0.54446E-06  4344   0.126E-02    0.179E-01
DAV: ***    -0.168311326049E+04    0.19226E-04   -0.86509E-06  4208   0.656E-02    0.128E-01
DAV: ***    -0.168311329154E+04   -0.31047E-04   -0.73845E-06  4384   0.126E-02    0.102E-01
DAV: ***    -0.168311325596E+04    0.35580E-04   -0.15917E-05  4144   0.829E-02    0.797E-02
DAV: ***    -0.168311330078E+04   -0.44825E-04   -0.89233E-06  4352   0.859E-03    0.817E-02
DAV: ***    -0.168311330296E+04   -0.21789E-05   -0.61973E-06  4664   0.869E-03    0.652E-02
DAV: ***    -0.168311330518E+04   -0.22200E-05   -0.29323E-06  5336   0.604E-03    0.563E-02
DAV: ***    -0.168311329657E+04    0.86096E-05   -0.45745E-06  4336   0.419E-02    0.970E-02
DAV: ***    -0.168311330390E+04   -0.73280E-05   -0.26982E-06  4864   0.240E-02    0.693E-02
DAV: ***    -0.168311331062E+04   -0.67259E-05   -0.41163E-06  4520   0.691E-03    0.884E-02
DAV: ***    -0.168311331204E+04   -0.14187E-05   -0.86772E-07  5240   0.378E-03    0.846E-02
DAV: ***    -0.168311331241E+04   -0.36327E-06   -0.45880E-07  4368   0.165E-03    0.819E-02
DAV: ***    -0.168311331251E+04   -0.10050E-06   -0.23296E-07  3784   0.110E-02    0.813E-02
DAV: ***    -0.168311331284E+04   -0.33036E-06   -0.20459E-07  3896   0.176E-03    0.818E-02
DAV: ***    -0.168311331296E+04   -0.12357E-06   -0.52528E-08  3304   0.586E-04    0.797E-02
DAV: ***    -0.168311331367E+04   -0.71080E-06   -0.15522E-07  2768   0.420E-03    0.779E-02
DAV: ***    -0.168311331395E+04   -0.27582E-06   -0.90394E-07  4152   0.180E-02    0.783E-02
DAV: ***    -0.168311331120E+04    0.27488E-05   -0.34179E-06  4568   0.243E-02    0.568E-02
DAV: ***    -0.168311331753E+04   -0.63351E-05   -0.17509E-06  4696   0.974E-03    0.559E-02
DAV: ***    -0.168311331780E+04   -0.26824E-06   -0.15981E-06  4728   0.617E-03    0.690E-02
DAV: ***    -0.168311331718E+04    0.62640E-06   -0.16710E-06  4288   0.208E-02    0.613E-02
DAV: ***    -0.168311331775E+04   -0.57206E-06   -0.10245E-06  4504   0.203E-02    0.661E-02
DAV: ***    -0.168311332140E+04   -0.36492E-05   -0.88803E-07  4560   0.823E-03    0.629E-02
DAV: ***    -0.168311332235E+04   -0.94907E-06   -0.12087E-06  4552   0.271E-03    0.677E-02
DAV: ***    -0.168311332251E+04   -0.16231E-06   -0.18535E-07  3976   0.476E-03    0.635E-02
DAV: ***    -0.168311332278E+04   -0.27616E-06   -0.18999E-07  3616   0.732E-03    0.599E-02
DAV: ***    -0.168311332317E+04   -0.38908E-06   -0.14305E-07  3880   0.439E-03    0.608E-02
DAV: ***    -0.168311332324E+04   -0.62697E-07   -0.74218E-08  3176   0.504E-03    0.612E-02
DAV: ***    -0.168311332337E+04   -0.12899E-06   -0.20169E-07  3832   0.148E-03    0.636E-02
DAV: ***    -0.168311332324E+04    0.12567E-06   -0.11833E-08  2400   0.131E-03    0.654E-02
DAV: ***    -0.168311332326E+04   -0.17841E-07   -0.10234E-08  2256   0.530E-04    0.663E-02
DAV: ***    -0.168311332315E+04    0.10787E-06   -0.43613E-09  2024   0.178E-03    0.664E-02
DAV: ***    -0.168311332287E+04    0.28304E-06   -0.10991E-07  3192   0.548E-03    0.664E-02
DAV: ***    -0.168311332338E+04   -0.51411E-06   -0.18403E-07  3656   0.771E-03    0.622E-02
DAV: ***    -0.168311332355E+04   -0.16754E-06   -0.34292E-08  2840   0.835E-04    0.607E-02
DAV: ***    -0.168311332353E+04    0.19922E-07   -0.24422E-08  2552   0.434E-04    0.606E-02
DAV: ***    -0.168311332354E+04   -0.16604E-07   -0.26933E-09  2000   0.790E-04    0.603E-02
DAV: ***    -0.168311332302E+04    0.52440E-06   -0.12447E-07  3256   0.564E-03    0.606E-02
DAV: ***    -0.168311332311E+04   -0.91808E-07   -0.61828E-08  2984   0.195E-03    0.637E-02
DAV: ***    -0.168311332319E+04   -0.74055E-07   -0.14247E-07  3560   0.685E-03    0.621E-02
DAV: ***    -0.168311332337E+04   -0.18545E-06   -0.29745E-08  2616   0.175E-03    0.643E-02
DAV: ***    -0.168311332348E+04   -0.11018E-06   -0.83824E-09  2112   0.188E-03    0.643E-02
DAV: ***    -0.168311332356E+04   -0.80130E-07   -0.50746E-08  2696   0.599E-03    0.609E-02
DAV: ***    -0.168311332377E+04   -0.21185E-06   -0.31218E-08  2640   0.946E-04    0.598E-02
DAV: ***    -0.168311332369E+04    0.82844E-07   -0.39605E-08  2888   0.239E-03    0.607E-02
DAV: ***    -0.168311332372E+04   -0.26957E-07   -0.12757E-08  2096   0.401E-04    0.607E-02
DAV: ***    -0.168311332348E+04    0.24166E-06   -0.13792E-08  2128   0.282E-03    0.632E-02
DAV: ***    -0.168311332372E+04   -0.24335E-06   -0.26836E-08  2392   0.387E-03    0.613E-02
DAV: ***    -0.168311332381E+04   -0.89327E-07   -0.55209E-09  2016   0.826E-04    0.595E-02
DAV: ***    -0.168311332386E+04   -0.47221E-07   -0.81403E-09  2056   0.553E-04    0.573E-02
DAV: ***    -0.168311332364E+04    0.21483E-06   -0.50793E-08  2776   0.429E-03    0.575E-02
DAV: ***    -0.168311332325E+04    0.39232E-06   -0.74094E-08  2968   0.651E-03    0.591E-02
DAV: ***    -0.168311332341E+04   -0.15707E-06   -0.11162E-06  4240   0.155E-02    0.463E-02
DAV: ***    -0.168311332455E+04   -0.11398E-05   -0.32488E-07  4624   0.405E-03    0.460E-02
DAV: ***    -0.168311332453E+04    0.20947E-07   -0.12387E-07  3872   0.346E-03    0.458E-02
DAV: ***    -0.168311332466E+04   -0.13735E-06   -0.20228E-08  2688   0.153E-03    0.448E-02
DAV: ***    -0.168311332475E+04   -0.88949E-07   -0.62293E-08  2704   0.465E-03    0.413E-02
DAV: ***    -0.168311329919E+04    0.25561E-04   -0.12424E-05  3944   0.466E-02    0.383E-02
DAV: ***    -0.168311331862E+04   -0.19426E-04   -0.35633E-06  4552   0.165E-02    0.374E-02
DAV: ***    -0.168311332370E+04   -0.50877E-05   -0.23567E-06  4568   0.114E-02    0.233E-02
DAV: ***    -0.168311332375E+04   -0.49680E-07   -0.31670E-07  4456   0.119E-02    0.141E-02
DAV: ***    -0.168311332441E+04   -0.65571E-06   -0.18105E-07  3816   0.680E-03    0.110E-02
DAV: ***    -0.168311332475E+04   -0.34509E-06   -0.15451E-07  3400   0.839E-03    0.114E-02
DAV: ***    -0.168311332512E+04   -0.36823E-06   -0.22460E-07  4000   0.321E-03    0.127E-02
DAV: ***    -0.168311332510E+04    0.25313E-07   -0.18218E-07  3656   0.974E-04    0.997E-03
DAV: ***    -0.168311332520E+04   -0.10587E-06   -0.15689E-08  2368   0.235E-03    0.954E-03
DAV: ***    -0.168311332533E+04   -0.12990E-06   -0.36146E-08  2656   0.433E-03    0.927E-03
DAV: ***    -0.168311332528E+04    0.50299E-07   -0.13103E-07  3336   0.832E-03    0.896E-03
DAV: ***    -0.168311332565E+04   -0.36894E-06   -0.44309E-08  2776   0.366E-03    0.902E-03
DAV: ***    -0.168311332579E+04   -0.13376E-06   -0.22834E-08  2488   0.442E-03    0.877E-03
DAV: ***    -0.168311332587E+04   -0.86817E-07   -0.30842E-08  2520   0.541E-03    0.858E-03
DAV: ***    -0.168311332594E+04   -0.68620E-07   -0.43202E-08  2672   0.630E-03    0.892E-03
DAV: ***    -0.168311332618E+04   -0.23418E-06   -0.10729E-07  3568   0.225E-03    0.958E-03
DAV: ***    -0.168311332622E+04   -0.46472E-07   -0.80119E-08  3392   0.653E-04    0.998E-03
DAV: ***    -0.168311332621E+04    0.92841E-08   -0.13089E-08  2240   0.463E-04
   1 F= -.16831133E+04 E0= -.16830753E+04  d E =-.760651E-01  mag=     0.0000
 writing wavefunctions
 augmentation electrons    114.5244233279024     
 soft         electrons    1089.379821765348     
 total        electrons    1203.904245093251     
 augmentation electrons   1.2630567743127621E-008
 soft         electrons    1089.379821765348     
 total        electrons   1.2630567743127621E-008
 PROFILE, used timers:     284
Fri 14 Mar 2025 06:22:22 PM PDT
