  10  10   1   0
  0.3099679E+02  0.7596448E-09  0.7596448E-09  0.7596448E-09  0.5000000E-15
   1.0000000000000000E-004
  CAR 
 vasp                                    
      8.96652338    -48.78608528  301      1.03824752      1.00000000
    -48.786  0.0000E+00  0.0000E+00  0.0000E+00  0.0000E+00
    -48.594  0.0000E+00  0.0000E+00  0.0000E+00  0.0000E+00
    -48.401  0.0000E+00  0.0000E+00  0.0000E+00  0.0000E+00
    -48.209  0.0000E+00  0.0000E+00  0.0000E+00  0.0000E+00
    -48.016  0.0000E+00  0.0000E+00  0.0000E+00  0.0000E+00
    -47.824  0.0000E+00  0.0000E+00  0.0000E+00  0.0000E+00
    -47.631  0.0000E+00  0.0000E+00  0.0000E+00  0.0000E+00
    -47.439  0.0000E+00  0.0000E+00  0.0000E+00  0.0000E+00
    -47.246  0.0000E+00  0.0000E+00  0.0000E+00  0.0000E+00
    -47.054  0.0000E+00  0.0000E+00  0.0000E+00  0.0000E+00
    -46.861  0.0000E+00  0.0000E+00  0.0000E+00  0.0000E+00
    -46.668  0.0000E+00  0.0000E+00  0.0000E+00  0.0000E+00
    -46.476  0.0000E+00  0.0000E+00  0.0000E+00  0.0000E+00
    -46.283  0.2755E-02  0.0000E+00  0.5303E-03  0.0000E+00
    -46.091  0.1014E+02  0.0000E+00  0.1952E+01  0.0000E+00
    -45.898  0.2478E+00  0.0000E+00  0.2000E+01  0.0000E+00
    -45.706  0.0000E+00  0.0000E+00  0.2000E+01  0.0000E+00
    -45.513  0.0000E+00  0.0000E+00  0.2000E+01  0.0000E+00
    -45.321  0.0000E+00  0.0000E+00  0.2000E+01  0.0000E+00
    -45.128  0.0000E+00  0.0000E+00  0.2000E+01  0.0000E+00
    -44.936  0.0000E+00  0.0000E+00  0.2000E+01  0.0000E+00
    -44.743  0.0000E+00  0.0000E+00  0.2000E+01  0.0000E+00
    -44.551  0.0000E+00  0.0000E+00  0.2000E+01  0.0000E+00
    -44.358  0.0000E+00  0.0000E+00  0.2000E+01  0.0000E+00
    -44.166  0.0000E+00  0.4132E-02  0.2000E+01  0.7955E-03
    -43.973  0.0000E+00  0.1020E+02  0.2000E+01  0.1963E+01
    -43.781  0.0000E+00  0.1899E+00  0.2000E+01  0.2000E+01
    -43.588  0.0000E+00  0.0000E+00  0.2000E+01  0.2000E+01
    -43.396  0.0000E+00  0.0000E+00  0.2000E+01  0.2000E+01
    -43.203  0.0000E+00  0.0000E+00  0.2000E+01  0.2000E+01
    -43.011  0.0000E+00  0.0000E+00  0.2000E+01  0.2000E+01
    -42.818  0.0000E+00  0.0000E+00  0.2000E+01  0.2000E+01
    -42.626  0.0000E+00  0.0000E+00  0.2000E+01  0.2000E+01
    -42.433  0.0000E+00  0.0000E+00  0.2000E+01  0.2000E+01
    -42.241  0.0000E+00  0.0000E+00  0.2000E+01  0.2000E+01
    -42.048  0.0000E+00  0.0000E+00  0.2000E+01  0.2000E+01
    -41.856  0.0000E+00  0.0000E+00  0.2000E+01  0.2000E+01
    -41.663  0.0000E+00  0.0000E+00  0.2000E+01  0.2000E+01
    -41.471  0.0000E+00  0.0000E+00  0.2000E+01  0.2000E+01
    -41.278  0.0000E+00  0.0000E+00  0.2000E+01  0.2000E+01
    -41.086  0.0000E+00  0.0000E+00  0.2000E+01  0.2000E+01
    -40.893  0.0000E+00  0.0000E+00  0.2000E+01  0.2000E+01
    -40.701  0.0000E+00  0.0000E+00  0.2000E+01  0.2000E+01
    -40.508  0.0000E+00  0.0000E+00  0.2000E+01  0.2000E+01
    -40.316  0.0000E+00  0.0000E+00  0.2000E+01  0.2000E+01
    -40.123  0.0000E+00  0.0000E+00  0.2000E+01  0.2000E+01
    -39.931  0.0000E+00  0.0000E+00  0.2000E+01  0.2000E+01
    -39.738  0.0000E+00  0.0000E+00  0.2000E+01  0.2000E+01
    -39.546  0.0000E+00  0.0000E+00  0.2000E+01  0.2000E+01
    -39.353  0.0000E+00  0.0000E+00  0.2000E+01  0.2000E+01
    -39.161  0.0000E+00  0.0000E+00  0.2000E+01  0.2000E+01
    -38.968  0.0000E+00  0.0000E+00  0.2000E+01  0.2000E+01
    -38.776  0.0000E+00  0.0000E+00  0.2000E+01  0.2000E+01
    -38.583  0.0000E+00  0.0000E+00  0.2000E+01  0.2000E+01
    -38.391  0.0000E+00  0.0000E+00  0.2000E+01  0.2000E+01
    -38.198  0.0000E+00  0.0000E+00  0.2000E+01  0.2000E+01
    -38.006  0.0000E+00  0.0000E+00  0.2000E+01  0.2000E+01
    -37.813  0.0000E+00  0.0000E+00  0.2000E+01  0.2000E+01
    -37.621  0.0000E+00  0.0000E+00  0.2000E+01  0.2000E+01
    -37.428  0.0000E+00  0.0000E+00  0.2000E+01  0.2000E+01
    -37.236  0.0000E+00  0.0000E+00  0.2000E+01  0.2000E+01
    -37.043  0.0000E+00  0.0000E+00  0.2000E+01  0.2000E+01
    -36.851  0.0000E+00  0.0000E+00  0.2000E+01  0.2000E+01
    -36.658  0.0000E+00  0.0000E+00  0.2000E+01  0.2000E+01
    -36.466  0.0000E+00  0.0000E+00  0.2000E+01  0.2000E+01
    -36.273  0.0000E+00  0.0000E+00  0.2000E+01  0.2000E+01
    -36.081  0.0000E+00  0.0000E+00  0.2000E+01  0.2000E+01
    -35.888  0.0000E+00  0.0000E+00  0.2000E+01  0.2000E+01
    -35.695  0.0000E+00  0.0000E+00  0.2000E+01  0.2000E+01
    -35.503  0.0000E+00  0.0000E+00  0.2000E+01  0.2000E+01
    -35.310  0.0000E+00  0.0000E+00  0.2000E+01  0.2000E+01
    -35.118  0.0000E+00  0.0000E+00  0.2000E+01  0.2000E+01
    -34.925  0.0000E+00  0.0000E+00  0.2000E+01  0.2000E+01
    -34.733  0.0000E+00  0.0000E+00  0.2000E+01  0.2000E+01
    -34.540  0.0000E+00  0.0000E+00  0.2000E+01  0.2000E+01
    -34.348  0.0000E+00  0.0000E+00  0.2000E+01  0.2000E+01
    -34.155  0.0000E+00  0.0000E+00  0.2000E+01  0.2000E+01
    -33.963  0.0000E+00  0.0000E+00  0.2000E+01  0.2000E+01
    -33.770  0.0000E+00  0.0000E+00  0.2000E+01  0.2000E+01
    -33.578  0.0000E+00  0.0000E+00  0.2000E+01  0.2000E+01
    -33.385  0.0000E+00  0.0000E+00  0.2000E+01  0.2000E+01
    -33.193  0.0000E+00  0.0000E+00  0.2000E+01  0.2000E+01
    -33.000  0.0000E+00  0.0000E+00  0.2000E+01  0.2000E+01
    -32.808  0.0000E+00  0.0000E+00  0.2000E+01  0.2000E+01
    -32.615  0.0000E+00  0.0000E+00  0.2000E+01  0.2000E+01
    -32.423  0.0000E+00  0.0000E+00  0.2000E+01  0.2000E+01
    -32.230  0.0000E+00  0.0000E+00  0.2000E+01  0.2000E+01
    -32.038  0.0000E+00  0.0000E+00  0.2000E+01  0.2000E+01
    -31.845  0.0000E+00  0.0000E+00  0.2000E+01  0.2000E+01
    -31.653  0.0000E+00  0.0000E+00  0.2000E+01  0.2000E+01
    -31.460  0.0000E+00  0.0000E+00  0.2000E+01  0.2000E+01
    -31.268  0.0000E+00  0.0000E+00  0.2000E+01  0.2000E+01
    -31.075  0.0000E+00  0.0000E+00  0.2000E+01  0.2000E+01
    -30.883  0.0000E+00  0.0000E+00  0.2000E+01  0.2000E+01
    -30.690  0.0000E+00  0.0000E+00  0.2000E+01  0.2000E+01
    -30.498  0.0000E+00  0.0000E+00  0.2000E+01  0.2000E+01
    -30.305  0.0000E+00  0.0000E+00  0.2000E+01  0.2000E+01
    -30.113  0.0000E+00  0.0000E+00  0.2000E+01  0.2000E+01
    -29.920  0.0000E+00  0.0000E+00  0.2000E+01  0.2000E+01
    -29.728  0.0000E+00  0.0000E+00  0.2000E+01  0.2000E+01
    -29.535  0.0000E+00  0.0000E+00  0.2000E+01  0.2000E+01
    -29.343  0.0000E+00  0.0000E+00  0.2000E+01  0.2000E+01
    -29.150  0.0000E+00  0.0000E+00  0.2000E+01  0.2000E+01
    -28.958  0.0000E+00  0.0000E+00  0.2000E+01  0.2000E+01
    -28.765  0.0000E+00  0.0000E+00  0.2000E+01  0.2000E+01
    -28.573  0.0000E+00  0.0000E+00  0.2000E+01  0.2000E+01
    -28.380  0.0000E+00  0.0000E+00  0.2000E+01  0.2000E+01
    -28.188  0.0000E+00  0.0000E+00  0.2000E+01  0.2000E+01
    -27.995  0.0000E+00  0.0000E+00  0.2000E+01  0.2000E+01
    -27.803  0.0000E+00  0.0000E+00  0.2000E+01  0.2000E+01
    -27.610  0.0000E+00  0.0000E+00  0.2000E+01  0.2000E+01
    -27.418  0.0000E+00  0.0000E+00  0.2000E+01  0.2000E+01
    -27.225  0.0000E+00  0.0000E+00  0.2000E+01  0.2000E+01
    -27.033  0.0000E+00  0.0000E+00  0.2000E+01  0.2000E+01
    -26.840  0.0000E+00  0.0000E+00  0.2000E+01  0.2000E+01
    -26.648  0.0000E+00  0.0000E+00  0.2000E+01  0.2000E+01
    -26.455  0.0000E+00  0.0000E+00  0.2000E+01  0.2000E+01
    -26.263  0.0000E+00  0.0000E+00  0.2000E+01  0.2000E+01
    -26.070  0.0000E+00  0.0000E+00  0.2000E+01  0.2000E+01
    -25.878  0.0000E+00  0.0000E+00  0.2000E+01  0.2000E+01
    -25.685  0.0000E+00  0.0000E+00  0.2000E+01  0.2000E+01
    -25.493  0.0000E+00  0.0000E+00  0.2000E+01  0.2000E+01
    -25.300  0.0000E+00  0.0000E+00  0.2000E+01  0.2000E+01
    -25.108  0.0000E+00  0.0000E+00  0.2000E+01  0.2000E+01
    -24.915  0.0000E+00  0.0000E+00  0.2000E+01  0.2000E+01
    -24.722  0.0000E+00  0.0000E+00  0.2000E+01  0.2000E+01
    -24.530  0.0000E+00  0.0000E+00  0.2000E+01  0.2000E+01
    -24.337  0.0000E+00  0.0000E+00  0.2000E+01  0.2000E+01
    -24.145  0.0000E+00  0.0000E+00  0.2000E+01  0.2000E+01
    -23.952  0.0000E+00  0.0000E+00  0.2000E+01  0.2000E+01
    -23.760  0.0000E+00  0.0000E+00  0.2000E+01  0.2000E+01
    -23.567  0.0000E+00  0.0000E+00  0.2000E+01  0.2000E+01
    -23.375  0.0000E+00  0.0000E+00  0.2000E+01  0.2000E+01
    -23.182  0.0000E+00  0.0000E+00  0.2000E+01  0.2000E+01
    -22.990  0.0000E+00  0.0000E+00  0.2000E+01  0.2000E+01
    -22.797  0.0000E+00  0.0000E+00  0.2000E+01  0.2000E+01
    -22.605  0.0000E+00  0.0000E+00  0.2000E+01  0.2000E+01
    -22.412  0.0000E+00  0.0000E+00  0.2000E+01  0.2000E+01
    -22.220  0.0000E+00  0.0000E+00  0.2000E+01  0.2000E+01
    -22.027  0.5553E-04  0.0000E+00  0.2000E+01  0.2000E+01
    -21.835  0.2465E+02  0.0000E+00  0.6746E+01  0.2000E+01
    -21.642  0.6517E+01  0.0000E+00  0.8000E+01  0.2000E+01
    -21.450  0.0000E+00  0.0000E+00  0.8000E+01  0.2000E+01
    -21.257  0.0000E+00  0.0000E+00  0.8000E+01  0.2000E+01
    -21.065  0.0000E+00  0.0000E+00  0.8000E+01  0.2000E+01
    -20.872  0.0000E+00  0.0000E+00  0.8000E+01  0.2000E+01
    -20.680  0.0000E+00  0.5017E-13  0.8000E+01  0.2000E+01
    -20.487  0.0000E+00  0.2315E+00  0.8000E+01  0.2045E+01
    -20.295  0.0000E+00  0.3090E+02  0.8000E+01  0.7992E+01
    -20.102  0.0000E+00  0.4083E-01  0.8000E+01  0.8000E+01
    -19.910  0.9116E-10  0.9092E-10  0.8000E+01  0.8000E+01
    -19.717  0.1562E+01  0.1562E+01  0.8301E+01  0.8301E+01
    -19.525  0.1921E+02  0.1922E+02  0.1200E+02  0.1200E+02
    -19.332  0.8526E-03  0.8517E-03  0.1200E+02  0.1200E+02
    -19.140  0.0000E+00  0.0000E+00  0.1200E+02  0.1200E+02
    -18.947  0.0000E+00  0.0000E+00  0.1200E+02  0.1200E+02
    -18.755  0.0000E+00  0.0000E+00  0.1200E+02  0.1200E+02
    -18.562  0.0000E+00  0.0000E+00  0.1200E+02  0.1200E+02
    -18.370  0.0000E+00  0.0000E+00  0.1200E+02  0.1200E+02
    -18.177  0.0000E+00  0.0000E+00  0.1200E+02  0.1200E+02
    -17.985  0.0000E+00  0.0000E+00  0.1200E+02  0.1200E+02
    -17.792  0.0000E+00  0.0000E+00  0.1200E+02  0.1200E+02
    -17.600  0.0000E+00  0.0000E+00  0.1200E+02  0.1200E+02
    -17.407  0.0000E+00  0.0000E+00  0.1200E+02  0.1200E+02
    -17.215  0.0000E+00  0.0000E+00  0.1200E+02  0.1200E+02
    -17.022  0.0000E+00  0.0000E+00  0.1200E+02  0.1200E+02
    -16.830  0.0000E+00  0.0000E+00  0.1200E+02  0.1200E+02
    -16.637  0.0000E+00  0.0000E+00  0.1200E+02  0.1200E+02
    -16.445  0.0000E+00  0.0000E+00  0.1200E+02  0.1200E+02
    -16.252  0.0000E+00  0.0000E+00  0.1200E+02  0.1200E+02
    -16.060  0.0000E+00  0.0000E+00  0.1200E+02  0.1200E+02
    -15.867  0.0000E+00  0.0000E+00  0.1200E+02  0.1200E+02
    -15.675  0.0000E+00  0.0000E+00  0.1200E+02  0.1200E+02
    -15.482  0.0000E+00  0.0000E+00  0.1200E+02  0.1200E+02
    -15.290  0.0000E+00  0.0000E+00  0.1200E+02  0.1200E+02
    -15.097  0.0000E+00  0.0000E+00  0.1200E+02  0.1200E+02
    -14.905  0.0000E+00  0.0000E+00  0.1200E+02  0.1200E+02
    -14.712  0.0000E+00  0.0000E+00  0.1200E+02  0.1200E+02
    -14.520  0.0000E+00  0.0000E+00  0.1200E+02  0.1200E+02
    -14.327  0.0000E+00  0.0000E+00  0.1200E+02  0.1200E+02
    -14.135  0.0000E+00  0.0000E+00  0.1200E+02  0.1200E+02
    -13.942  0.0000E+00  0.0000E+00  0.1200E+02  0.1200E+02
    -13.750  0.0000E+00  0.0000E+00  0.1200E+02  0.1200E+02
    -13.557  0.5625E-10  0.3403E-13  0.1200E+02  0.1200E+02
    -13.364  0.9194E+00  0.9791E-01  0.1218E+02  0.1202E+02
    -13.172  0.9470E+01  0.1028E+02  0.1400E+02  0.1400E+02
    -12.979  0.4852E+01  0.3775E+00  0.1493E+02  0.1407E+02
    -12.787  0.4709E+02  0.5139E+02  0.2400E+02  0.2396E+02
    -12.594  0.1042E-02  0.1932E+00  0.2400E+02  0.2400E+02
    -12.402  0.0000E+00  0.0000E+00  0.2400E+02  0.2400E+02
    -12.209  0.0000E+00  0.0000E+00  0.2400E+02  0.2400E+02
    -12.017  0.0000E+00  0.0000E+00  0.2400E+02  0.2400E+02
    -11.824  0.0000E+00  0.0000E+00  0.2400E+02  0.2400E+02
    -11.632  0.0000E+00  0.0000E+00  0.2400E+02  0.2400E+02
    -11.439  0.0000E+00  0.0000E+00  0.2400E+02  0.2400E+02
    -11.247  0.0000E+00  0.0000E+00  0.2400E+02  0.2400E+02
    -11.054  0.0000E+00  0.0000E+00  0.2400E+02  0.2400E+02
    -10.862  0.0000E+00  0.0000E+00  0.2400E+02  0.2400E+02
    -10.669  0.0000E+00  0.0000E+00  0.2400E+02  0.2400E+02
    -10.477  0.0000E+00  0.0000E+00  0.2400E+02  0.2400E+02
    -10.284  0.0000E+00  0.0000E+00  0.2400E+02  0.2400E+02
    -10.092  0.0000E+00  0.0000E+00  0.2400E+02  0.2400E+02
     -9.899  0.0000E+00  0.0000E+00  0.2400E+02  0.2400E+02
     -9.707  0.0000E+00  0.0000E+00  0.2400E+02  0.2400E+02
     -9.514  0.0000E+00  0.0000E+00  0.2400E+02  0.2400E+02
     -9.322  0.0000E+00  0.0000E+00  0.2400E+02  0.2400E+02
     -9.129  0.0000E+00  0.0000E+00  0.2400E+02  0.2400E+02
     -8.937  0.0000E+00  0.0000E+00  0.2400E+02  0.2400E+02
     -8.744  0.0000E+00  0.0000E+00  0.2400E+02  0.2400E+02
     -8.552  0.0000E+00  0.0000E+00  0.2400E+02  0.2400E+02
     -8.359  0.0000E+00  0.0000E+00  0.2400E+02  0.2400E+02
     -8.167  0.0000E+00  0.0000E+00  0.2400E+02  0.2400E+02
     -7.974  0.0000E+00  0.0000E+00  0.2400E+02  0.2400E+02
     -7.782  0.0000E+00  0.0000E+00  0.2400E+02  0.2400E+02
     -7.589  0.0000E+00  0.0000E+00  0.2400E+02  0.2400E+02
     -7.397  0.0000E+00  0.0000E+00  0.2400E+02  0.2400E+02
     -7.204  0.0000E+00  0.0000E+00  0.2400E+02  0.2400E+02
     -7.012  0.0000E+00  0.0000E+00  0.2400E+02  0.2400E+02
     -6.819  0.7557E-06  0.6699E-06  0.2400E+02  0.2400E+02
     -6.627  0.1549E+02  0.1522E+02  0.2698E+02  0.2693E+02
     -6.434  0.4666E+02  0.4692E+02  0.3596E+02  0.3596E+02
     -6.242  0.1871E+00  0.1993E+00  0.3600E+02  0.3600E+02
     -6.049  0.0000E+00  0.0000E+00  0.3600E+02  0.3600E+02
     -5.857  0.0000E+00  0.0000E+00  0.3600E+02  0.3600E+02
     -5.664  0.0000E+00  0.0000E+00  0.3600E+02  0.3600E+02
     -5.472  0.0000E+00  0.0000E+00  0.3600E+02  0.3600E+02
     -5.279  0.0000E+00  0.0000E+00  0.3600E+02  0.3600E+02
     -5.087  0.0000E+00  0.0000E+00  0.3600E+02  0.3600E+02
     -4.894  0.0000E+00  0.0000E+00  0.3600E+02  0.3600E+02
     -4.702  0.0000E+00  0.0000E+00  0.3600E+02  0.3600E+02
     -4.509  0.0000E+00  0.0000E+00  0.3600E+02  0.3600E+02
     -4.317  0.0000E+00  0.0000E+00  0.3600E+02  0.3600E+02
     -4.124  0.0000E+00  0.0000E+00  0.3600E+02  0.3600E+02
     -3.932  0.0000E+00  0.0000E+00  0.3600E+02  0.3600E+02
     -3.739  0.0000E+00  0.0000E+00  0.3600E+02  0.3600E+02
     -3.547  0.5767E-15  0.0000E+00  0.3600E+02  0.3600E+02
     -3.354  0.2172E-01  0.1094E-04  0.3600E+02  0.3600E+02
     -3.162  0.3305E+02  0.7882E+01  0.4237E+02  0.3752E+02
     -2.969  0.8487E+01  0.2507E+01  0.4400E+02  0.3800E+02
     -2.777  0.4370E+01  0.0000E+00  0.4484E+02  0.3800E+02
     -2.584  0.2680E+02  0.0000E+00  0.5000E+02  0.3800E+02
     -2.391  0.1975E-03  0.0000E+00  0.5000E+02  0.3800E+02
     -2.199  0.3006E-07  0.2281E-09  0.5000E+02  0.3800E+02
     -2.006  0.9183E+01  0.2983E+01  0.5177E+02  0.3857E+02
     -1.814  0.6728E+02  0.3998E+02  0.6472E+02  0.4627E+02
     -1.621  0.1704E+02  0.4014E+02  0.6800E+02  0.5400E+02
     -1.429  0.1003E-06  0.1073E-01  0.6800E+02  0.5400E+02
     -1.236  0.2907E-12  0.4861E-09  0.6800E+02  0.5400E+02
     -1.044  0.4177E+00  0.3612E+01  0.6808E+02  0.5470E+02
     -0.851  0.3073E+02  0.2757E+02  0.7400E+02  0.6000E+02
     -0.659  0.1360E+01  0.3051E+02  0.7426E+02  0.6587E+02
     -0.466  0.4371E+02  0.6190E+01  0.8267E+02  0.6707E+02
     -0.274  0.1728E+02  0.2563E+02  0.8600E+02  0.7200E+02
     -0.081  0.1724E-05  0.9594E-04  0.8600E+02  0.7200E+02
      0.111  0.0000E+00  0.0000E+00  0.8600E+02  0.7200E+02
      0.304  0.0000E+00  0.0000E+00  0.8600E+02  0.7200E+02
      0.496  0.0000E+00  0.2890E-08  0.8600E+02  0.7200E+02
      0.689  0.0000E+00  0.2332E+01  0.8600E+02  0.7245E+02
      0.881  0.0000E+00  0.8058E+01  0.8600E+02  0.7400E+02
      1.074  0.0000E+00  0.2499E+02  0.8600E+02  0.7881E+02
      1.266  0.0000E+00  0.3735E+02  0.8600E+02  0.8600E+02
      1.459  0.0000E+00  0.5463E-03  0.8600E+02  0.8600E+02
      1.651  0.0000E+00  0.0000E+00  0.8600E+02  0.8600E+02
      1.844  0.0000E+00  0.0000E+00  0.8600E+02  0.8600E+02
      2.036  0.0000E+00  0.0000E+00  0.8600E+02  0.8600E+02
      2.229  0.0000E+00  0.0000E+00  0.8600E+02  0.8600E+02
      2.421  0.0000E+00  0.0000E+00  0.8600E+02  0.8600E+02
      2.614  0.0000E+00  0.0000E+00  0.8600E+02  0.8600E+02
      2.806  0.0000E+00  0.0000E+00  0.8600E+02  0.8600E+02
      2.999  0.0000E+00  0.0000E+00  0.8600E+02  0.8600E+02
      3.191  0.0000E+00  0.0000E+00  0.8600E+02  0.8600E+02
      3.384  0.0000E+00  0.0000E+00  0.8600E+02  0.8600E+02
      3.576  0.0000E+00  0.0000E+00  0.8600E+02  0.8600E+02
      3.769  0.0000E+00  0.0000E+00  0.8600E+02  0.8600E+02
      3.961  0.0000E+00  0.0000E+00  0.8600E+02  0.8600E+02
      4.154  0.0000E+00  0.0000E+00  0.8600E+02  0.8600E+02
      4.346  0.2251E-11  0.0000E+00  0.8600E+02  0.8600E+02
      4.539  0.8028E+00  0.0000E+00  0.8615E+02  0.8600E+02
      4.731  0.3036E+02  0.7464E-03  0.9200E+02  0.8600E+02
      4.924  0.1022E+02  0.3738E+02  0.9397E+02  0.9320E+02
      5.116  0.1704E+00  0.4178E+01  0.9400E+02  0.9400E+02
      5.309  0.0000E+00  0.0000E+00  0.9400E+02  0.9400E+02
      5.501  0.1153E-14  0.0000E+00  0.9400E+02  0.9400E+02
      5.694  0.4261E-01  0.2901E-01  0.9401E+02  0.9401E+02
      5.886  0.2063E+02  0.2060E+02  0.9798E+02  0.9797E+02
      6.079  0.1042E+00  0.1463E+00  0.9800E+02  0.9800E+02
      6.271  0.2881E+01  0.4963E+00  0.9855E+02  0.9810E+02
      6.464  0.1790E+02  0.2028E+02  0.1020E+03  0.1020E+03
      6.656  0.1360E-03  0.5497E-02  0.1020E+03  0.1020E+03
      6.849  0.0000E+00  0.0000E+00  0.1020E+03  0.1020E+03
      7.041  0.0000E+00  0.0000E+00  0.1020E+03  0.1020E+03
      7.234  0.0000E+00  0.0000E+00  0.1020E+03  0.1020E+03
      7.426  0.0000E+00  0.0000E+00  0.1020E+03  0.1020E+03
      7.619  0.0000E+00  0.0000E+00  0.1020E+03  0.1020E+03
      7.811  0.0000E+00  0.0000E+00  0.1020E+03  0.1020E+03
      8.004  0.0000E+00  0.0000E+00  0.1020E+03  0.1020E+03
      8.196  0.0000E+00  0.0000E+00  0.1020E+03  0.1020E+03
      8.389  0.0000E+00  0.0000E+00  0.1020E+03  0.1020E+03
      8.582  0.0000E+00  0.0000E+00  0.1020E+03  0.1020E+03
      8.774  0.0000E+00  0.0000E+00  0.1020E+03  0.1020E+03
      8.967  0.0000E+00  0.0000E+00  0.1020E+03  0.1020E+03
      8.96652338    -48.78608528  301      1.03824752      1.00000000
    -48.786  0.0000E+00  0.0000E+00  0.0000E+00  0.0000E+00  0.0000E+00  0.0000E+00  0.0000E+00  0.0000E+00
    -48.594  0.0000E+00  0.0000E+00  0.0000E+00  0.0000E+00  0.0000E+00  0.0000E+00  0.0000E+00  0.0000E+00
    -48.401  0.0000E+00  0.0000E+00  0.0000E+00  0.0000E+00  0.0000E+00  0.0000E+00  0.0000E+00  0.0000E+00
    -48.209  0.0000E+00  0.0000E+00  0.0000E+00  0.0000E+00  0.0000E+00  0.0000E+00  0.0000E+00  0.0000E+00
    -48.016  0.0000E+00  0.0000E+00  0.0000E+00  0.0000E+00  0.0000E+00  0.0000E+00  0.0000E+00  0.0000E+00
    -47.824  0.0000E+00  0.0000E+00  0.0000E+00  0.0000E+00  0.0000E+00  0.0000E+00  0.0000E+00  0.0000E+00
    -47.631  0.0000E+00  0.0000E+00  0.0000E+00  0.0000E+00  0.0000E+00  0.0000E+00  0.0000E+00  0.0000E+00
    -47.439  0.0000E+00  0.0000E+00  0.0000E+00  0.0000E+00  0.0000E+00  0.0000E+00  0.0000E+00  0.0000E+00
    -47.246  0.0000E+00  0.0000E+00  0.0000E+00  0.0000E+00  0.0000E+00  0.0000E+00  0.0000E+00  0.0000E+00
    -47.054  0.0000E+00  0.0000E+00  0.0000E+00  0.0000E+00  0.0000E+00  0.0000E+00  0.0000E+00  0.0000E+00
    -46.861  0.0000E+00  0.0000E+00  0.0000E+00  0.0000E+00  0.0000E+00  0.0000E+00  0.0000E+00  0.0000E+00
    -46.668  0.0000E+00  0.0000E+00  0.0000E+00  0.0000E+00  0.0000E+00  0.0000E+00  0.0000E+00  0.0000E+00
    -46.476  0.0000E+00  0.0000E+00  0.0000E+00  0.0000E+00  0.0000E+00  0.0000E+00  0.0000E+00  0.0000E+00
    -46.283  0.2712E-02  0.0000E+00  0.2494E-20  0.0000E+00  0.2739E-13  0.0000E+00  0.3760E-16  0.0000E+00
    -46.091  0.9984E+01  0.0000E+00  0.9179E-17  0.0000E+00  0.1008E-09  0.0000E+00  0.1384E-12  0.0000E+00
    -45.898  0.2440E+00  0.0000E+00  0.2244E-18  0.0000E+00  0.2464E-11  0.0000E+00  0.3382E-14  0.0000E+00
    -45.706  0.0000E+00  0.0000E+00  0.0000E+00  0.0000E+00  0.0000E+00  0.0000E+00  0.0000E+00  0.0000E+00
    -45.513  0.0000E+00  0.0000E+00  0.0000E+00  0.0000E+00  0.0000E+00  0.0000E+00  0.0000E+00  0.0000E+00
    -45.321  0.0000E+00  0.0000E+00  0.0000E+00  0.0000E+00  0.0000E+00  0.0000E+00  0.0000E+00  0.0000E+00
    -45.128  0.0000E+00  0.0000E+00  0.0000E+00  0.0000E+00  0.0000E+00  0.0000E+00  0.0000E+00  0.0000E+00
    -44.936  0.0000E+00  0.0000E+00  0.0000E+00  0.0000E+00  0.0000E+00  0.0000E+00  0.0000E+00  0.0000E+00
    -44.743  0.0000E+00  0.0000E+00  0.0000E+00  0.0000E+00  0.0000E+00  0.0000E+00  0.0000E+00  0.0000E+00
    -44.551  0.0000E+00  0.0000E+00  0.0000E+00  0.0000E+00  0.0000E+00  0.0000E+00  0.0000E+00  0.0000E+00
    -44.358  0.0000E+00  0.0000E+00  0.0000E+00  0.0000E+00  0.0000E+00  0.0000E+00  0.0000E+00  0.0000E+00
    -44.166  0.0000E+00  0.4097E-02  0.0000E+00  0.1971E-20  0.0000E+00  0.4262E-13  0.0000E+00  0.1309E-16
    -43.973  0.0000E+00  0.1011E+02  0.0000E+00  0.4862E-17  0.0000E+00  0.1052E-09  0.0000E+00  0.3229E-13
    -43.781  0.0000E+00  0.1883E+00  0.0000E+00  0.9057E-19  0.0000E+00  0.1959E-11  0.0000E+00  0.6016E-15
    -43.588  0.0000E+00  0.0000E+00  0.0000E+00  0.0000E+00  0.0000E+00  0.0000E+00  0.0000E+00  0.0000E+00
    -43.396  0.0000E+00  0.0000E+00  0.0000E+00  0.0000E+00  0.0000E+00  0.0000E+00  0.0000E+00  0.0000E+00
    -43.203  0.0000E+00  0.0000E+00  0.0000E+00  0.0000E+00  0.0000E+00  0.0000E+00  0.0000E+00  0.0000E+00
    -43.011  0.0000E+00  0.0000E+00  0.0000E+00  0.0000E+00  0.0000E+00  0.0000E+00  0.0000E+00  0.0000E+00
    -42.818  0.0000E+00  0.0000E+00  0.0000E+00  0.0000E+00  0.0000E+00  0.0000E+00  0.0000E+00  0.0000E+00
    -42.626  0.0000E+00  0.0000E+00  0.0000E+00  0.0000E+00  0.0000E+00  0.0000E+00  0.0000E+00  0.0000E+00
    -42.433  0.0000E+00  0.0000E+00  0.0000E+00  0.0000E+00  0.0000E+00  0.0000E+00  0.0000E+00  0.0000E+00
    -42.241  0.0000E+00  0.0000E+00  0.0000E+00  0.0000E+00  0.0000E+00  0.0000E+00  0.0000E+00  0.0000E+00
    -42.048  0.0000E+00  0.0000E+00  0.0000E+00  0.0000E+00  0.0000E+00  0.0000E+00  0.0000E+00  0.0000E+00
    -41.856  0.0000E+00  0.0000E+00  0.0000E+00  0.0000E+00  0.0000E+00  0.0000E+00  0.0000E+00  0.0000E+00
    -41.663  0.0000E+00  0.0000E+00  0.0000E+00  0.0000E+00  0.0000E+00  0.0000E+00  0.0000E+00  0.0000E+00
    -41.471  0.0000E+00  0.0000E+00  0.0000E+00  0.0000E+00  0.0000E+00  0.0000E+00  0.0000E+00  0.0000E+00
    -41.278  0.0000E+00  0.0000E+00  0.0000E+00  0.0000E+00  0.0000E+00  0.0000E+00  0.0000E+00  0.0000E+00
    -41.086  0.0000E+00  0.0000E+00  0.0000E+00  0.0000E+00  0.0000E+00  0.0000E+00  0.0000E+00  0.0000E+00
    -40.893  0.0000E+00  0.0000E+00  0.0000E+00  0.0000E+00  0.0000E+00  0.0000E+00  0.0000E+00  0.0000E+00
    -40.701  0.0000E+00  0.0000E+00  0.0000E+00  0.0000E+00  0.0000E+00  0.0000E+00  0.0000E+00  0.0000E+00
    -40.508  0.0000E+00  0.0000E+00  0.0000E+00  0.0000E+00  0.0000E+00  0.0000E+00  0.0000E+00  0.0000E+00
    -40.316  0.0000E+00  0.0000E+00  0.0000E+00  0.0000E+00  0.0000E+00  0.0000E+00  0.0000E+00  0.0000E+00
    -40.123  0.0000E+00  0.0000E+00  0.0000E+00  0.0000E+00  0.0000E+00  0.0000E+00  0.0000E+00  0.0000E+00
    -39.931  0.0000E+00  0.0000E+00  0.0000E+00  0.0000E+00  0.0000E+00  0.0000E+00  0.0000E+00  0.0000E+00
    -39.738  0.0000E+00  0.0000E+00  0.0000E+00  0.0000E+00  0.0000E+00  0.0000E+00  0.0000E+00  0.0000E+00
    -39.546  0.0000E+00  0.0000E+00  0.0000E+00  0.0000E+00  0.0000E+00  0.0000E+00  0.0000E+00  0.0000E+00
    -39.353  0.0000E+00  0.0000E+00  0.0000E+00  0.0000E+00  0.0000E+00  0.0000E+00  0.0000E+00  0.0000E+00
    -39.161  0.0000E+00  0.0000E+00  0.0000E+00  0.0000E+00  0.0000E+00  0.0000E+00  0.0000E+00  0.0000E+00
    -38.968  0.0000E+00  0.0000E+00  0.0000E+00  0.0000E+00  0.0000E+00  0.0000E+00  0.0000E+00  0.0000E+00
    -38.776  0.0000E+00  0.0000E+00  0.0000E+00  0.0000E+00  0.0000E+00  0.0000E+00  0.0000E+00  0.0000E+00
    -38.583  0.0000E+00  0.0000E+00  0.0000E+00  0.0000E+00  0.0000E+00  0.0000E+00  0.0000E+00  0.0000E+00
    -38.391  0.0000E+00  0.0000E+00  0.0000E+00  0.0000E+00  0.0000E+00  0.0000E+00  0.0000E+00  0.0000E+00
    -38.198  0.0000E+00  0.0000E+00  0.0000E+00  0.0000E+00  0.0000E+00  0.0000E+00  0.0000E+00  0.0000E+00
    -38.006  0.0000E+00  0.0000E+00  0.0000E+00  0.0000E+00  0.0000E+00  0.0000E+00  0.0000E+00  0.0000E+00
    -37.813  0.0000E+00  0.0000E+00  0.0000E+00  0.0000E+00  0.0000E+00  0.0000E+00  0.0000E+00  0.0000E+00
    -37.621  0.0000E+00  0.0000E+00  0.0000E+00  0.0000E+00  0.0000E+00  0.0000E+00  0.0000E+00  0.0000E+00
    -37.428  0.0000E+00  0.0000E+00  0.0000E+00  0.0000E+00  0.0000E+00  0.0000E+00  0.0000E+00  0.0000E+00
    -37.236  0.0000E+00  0.0000E+00  0.0000E+00  0.0000E+00  0.0000E+00  0.0000E+00  0.0000E+00  0.0000E+00
    -37.043  0.0000E+00  0.0000E+00  0.0000E+00  0.0000E+00  0.0000E+00  0.0000E+00  0.0000E+00  0.0000E+00
    -36.851  0.0000E+00  0.0000E+00  0.0000E+00  0.0000E+00  0.0000E+00  0.0000E+00  0.0000E+00  0.0000E+00
    -36.658  0.0000E+00  0.0000E+00  0.0000E+00  0.0000E+00  0.0000E+00  0.0000E+00  0.0000E+00  0.0000E+00
    -36.466  0.0000E+00  0.0000E+00  0.0000E+00  0.0000E+00  0.0000E+00  0.0000E+00  0.0000E+00  0.0000E+00
    -36.273  0.0000E+00  0.0000E+00  0.0000E+00  0.0000E+00  0.0000E+00  0.0000E+00  0.0000E+00  0.0000E+00
    -36.081  0.0000E+00  0.0000E+00  0.0000E+00  0.0000E+00  0.0000E+00  0.0000E+00  0.0000E+00  0.0000E+00
    -35.888  0.0000E+00  0.0000E+00  0.0000E+00  0.0000E+00  0.0000E+00  0.0000E+00  0.0000E+00  0.0000E+00
    -35.695  0.0000E+00  0.0000E+00  0.0000E+00  0.0000E+00  0.0000E+00  0.0000E+00  0.0000E+00  0.0000E+00
    -35.503  0.0000E+00  0.0000E+00  0.0000E+00  0.0000E+00  0.0000E+00  0.0000E+00  0.0000E+00  0.0000E+00
    -35.310  0.0000E+00  0.0000E+00  0.0000E+00  0.0000E+00  0.0000E+00  0.0000E+00  0.0000E+00  0.0000E+00
    -35.118  0.0000E+00  0.0000E+00  0.0000E+00  0.0000E+00  0.0000E+00  0.0000E+00  0.0000E+00  0.0000E+00
    -34.925  0.0000E+00  0.0000E+00  0.0000E+00  0.0000E+00  0.0000E+00  0.0000E+00  0.0000E+00  0.0000E+00
    -34.733  0.0000E+00  0.0000E+00  0.0000E+00  0.0000E+00  0.0000E+00  0.0000E+00  0.0000E+00  0.0000E+00
    -34.540  0.0000E+00  0.0000E+00  0.0000E+00  0.0000E+00  0.0000E+00  0.0000E+00  0.0000E+00  0.0000E+00
    -34.348  0.0000E+00  0.0000E+00  0.0000E+00  0.0000E+00  0.0000E+00  0.0000E+00  0.0000E+00  0.0000E+00
    -34.155  0.0000E+00  0.0000E+00  0.0000E+00  0.0000E+00  0.0000E+00  0.0000E+00  0.0000E+00  0.0000E+00
    -33.963  0.0000E+00  0.0000E+00  0.0000E+00  0.0000E+00  0.0000E+00  0.0000E+00  0.0000E+00  0.0000E+00
    -33.770  0.0000E+00  0.0000E+00  0.0000E+00  0.0000E+00  0.0000E+00  0.0000E+00  0.0000E+00  0.0000E+00
    -33.578  0.0000E+00  0.0000E+00  0.0000E+00  0.0000E+00  0.0000E+00  0.0000E+00  0.0000E+00  0.0000E+00
    -33.385  0.0000E+00  0.0000E+00  0.0000E+00  0.0000E+00  0.0000E+00  0.0000E+00  0.0000E+00  0.0000E+00
    -33.193  0.0000E+00  0.0000E+00  0.0000E+00  0.0000E+00  0.0000E+00  0.0000E+00  0.0000E+00  0.0000E+00
    -33.000  0.0000E+00  0.0000E+00  0.0000E+00  0.0000E+00  0.0000E+00  0.0000E+00  0.0000E+00  0.0000E+00
    -32.808  0.0000E+00  0.0000E+00  0.0000E+00  0.0000E+00  0.0000E+00  0.0000E+00  0.0000E+00  0.0000E+00
    -32.615  0.0000E+00  0.0000E+00  0.0000E+00  0.0000E+00  0.0000E+00  0.0000E+00  0.0000E+00  0.0000E+00
    -32.423  0.0000E+00  0.0000E+00  0.0000E+00  0.0000E+00  0.0000E+00  0.0000E+00  0.0000E+00  0.0000E+00
    -32.230  0.0000E+00  0.0000E+00  0.0000E+00  0.0000E+00  0.0000E+00  0.0000E+00  0.0000E+00  0.0000E+00
    -32.038  0.0000E+00  0.0000E+00  0.0000E+00  0.0000E+00  0.0000E+00  0.0000E+00  0.0000E+00  0.0000E+00
    -31.845  0.0000E+00  0.0000E+00  0.0000E+00  0.0000E+00  0.0000E+00  0.0000E+00  0.0000E+00  0.0000E+00
    -31.653  0.0000E+00  0.0000E+00  0.0000E+00  0.0000E+00  0.0000E+00  0.0000E+00  0.0000E+00  0.0000E+00
    -31.460  0.0000E+00  0.0000E+00  0.0000E+00  0.0000E+00  0.0000E+00  0.0000E+00  0.0000E+00  0.0000E+00
    -31.268  0.0000E+00  0.0000E+00  0.0000E+00  0.0000E+00  0.0000E+00  0.0000E+00  0.0000E+00  0.0000E+00
    -31.075  0.0000E+00  0.0000E+00  0.0000E+00  0.0000E+00  0.0000E+00  0.0000E+00  0.0000E+00  0.0000E+00
    -30.883  0.0000E+00  0.0000E+00  0.0000E+00  0.0000E+00  0.0000E+00  0.0000E+00  0.0000E+00  0.0000E+00
    -30.690  0.0000E+00  0.0000E+00  0.0000E+00  0.0000E+00  0.0000E+00  0.0000E+00  0.0000E+00  0.0000E+00
    -30.498  0.0000E+00  0.0000E+00  0.0000E+00  0.0000E+00  0.0000E+00  0.0000E+00  0.0000E+00  0.0000E+00
    -30.305  0.0000E+00  0.0000E+00  0.0000E+00  0.0000E+00  0.0000E+00  0.0000E+00  0.0000E+00  0.0000E+00
    -30.113  0.0000E+00  0.0000E+00  0.0000E+00  0.0000E+00  0.0000E+00  0.0000E+00  0.0000E+00  0.0000E+00
    -29.920  0.0000E+00  0.0000E+00  0.0000E+00  0.0000E+00  0.0000E+00  0.0000E+00  0.0000E+00  0.0000E+00
    -29.728  0.0000E+00  0.0000E+00  0.0000E+00  0.0000E+00  0.0000E+00  0.0000E+00  0.0000E+00  0.0000E+00
    -29.535  0.0000E+00  0.0000E+00  0.0000E+00  0.0000E+00  0.0000E+00  0.0000E+00  0.0000E+00  0.0000E+00
    -29.343  0.0000E+00  0.0000E+00  0.0000E+00  0.0000E+00  0.0000E+00  0.0000E+00  0.0000E+00  0.0000E+00
    -29.150  0.0000E+00  0.0000E+00  0.0000E+00  0.0000E+00  0.0000E+00  0.0000E+00  0.0000E+00  0.0000E+00
    -28.958  0.0000E+00  0.0000E+00  0.0000E+00  0.0000E+00  0.0000E+00  0.0000E+00  0.0000E+00  0.0000E+00
    -28.765  0.0000E+00  0.0000E+00  0.0000E+00  0.0000E+00  0.0000E+00  0.0000E+00  0.0000E+00  0.0000E+00
    -28.573  0.0000E+00  0.0000E+00  0.0000E+00  0.0000E+00  0.0000E+00  0.0000E+00  0.0000E+00  0.0000E+00
    -28.380  0.0000E+00  0.0000E+00  0.0000E+00  0.0000E+00  0.0000E+00  0.0000E+00  0.0000E+00  0.0000E+00