   10   10    1    2
  0.3099679E+02  0.7596448E-09  0.7596448E-09  0.7596448E-09  0.5000000E-15
   1.0000000000000000E-004
  CAR 
 vasp                                    
     81      1     51
 
  0.1262379E-14  0.1262379E-14  0.1262379E-14  0.1000000E+01
      1        -46.160967      -44.047282   1.000000   1.000000
      2        -21.863512      -20.401213   1.000000   1.000000
      3        -21.863482      -20.401212   1.000000   1.000000
      4        -21.863482      -20.401137   1.000000   1.000000
      5        -19.671521      -19.671505   1.000000   1.000000
      6        -19.659981      -19.659997   1.000000   1.000000
      7        -13.316753      -13.281452   1.000000   1.000000
      8        -12.936257      -12.902823   1.000000   1.000000
      9        -12.936257      -12.902823   1.000000   1.000000
     10        -12.930215      -12.876097   1.000000   1.000000
     11        -12.930215      -12.876097   1.000000   1.000000
     12        -12.930215      -12.876097   1.000000   1.000000
     13         -6.626268       -6.625512   1.000000   1.000000
     14         -6.626262       -6.625512   1.000000   1.000000
     15         -6.626262       -6.625505   1.000000   1.000000
     16         -6.522986       -6.522196   1.000000   1.000000
     17         -6.522980       -6.522196   1.000000   1.000000
     18         -6.522980       -6.522188   1.000000   1.000000
     19         -3.252761       -3.186345   1.000000   1.000000
     20         -3.183160       -1.960283   1.000000   1.000000
     21         -3.183101       -1.960283   1.000000   1.000000
     22         -3.183101       -1.960279   1.000000   1.000000
     23         -2.738369       -1.802062   1.000000   1.000000
     24         -2.738368       -1.802062   1.000000   1.000000
     25         -2.738302       -1.802053   1.000000   1.000000
     26         -1.986722       -1.737480   1.000000   1.000000
     27         -1.986722       -1.737480   1.000000   1.000000
     28         -1.986713       -1.001661   1.000000   1.000000
     29         -1.933389       -1.001643   1.000000   1.000000
     30         -1.833540       -1.001643   1.000000   1.000000
     31         -1.833540       -0.730893   1.000000   1.000000
     32         -1.833539       -0.730892   1.000000   1.000000
     33         -1.824277       -0.730885   1.000000   1.000000
     34         -1.824277       -0.433734   1.000000   1.000000
     35         -0.965642       -0.433733   1.000000   1.000000
     36         -0.965642       -0.433733   1.000000   1.000000
     37         -0.965635        0.715426   1.000000   1.000000
     38         -0.598219        1.054349   1.000000   0.324404
     39         -0.598213        1.054571   1.000000   0.322147
     40         -0.598213        1.054583   1.000000   0.322025
     41         -0.461574        1.119843   1.000000   0.010504
     42         -0.461574        1.119854   1.000000   0.010495
     43         -0.461573        1.119943   1.000000   0.010425
     44          4.607656        4.875804   0.000000   0.000000
     45          4.607656        4.875804   0.000000   0.000000
     46          4.607685        4.875887   0.000000   0.000000
     47          4.848376        4.885714   0.000000   0.000000
     48          5.795355        5.799578   0.000000   0.000000
     49          5.795355        5.799578   0.000000   0.000000
     50          6.309807        6.341362   0.000000   0.000000
     51          6.309815        6.341405   0.000000   0.000000
