       N       E                     dE             d eps       ncg     rms          rms(c)
DAV:   1     0.880693344887E+03    0.88069E+03   -0.34091E+04   312   0.204E+03
DAV:   2     0.166882302317E+03   -0.71381E+03   -0.67755E+03   317   0.636E+02
DAV:   3    -0.200131306910E+02   -0.18690E+03   -0.17110E+03   304   0.187E+02
DAV:   4    -0.389099754270E+02   -0.18897E+02   -0.18628E+02   312   0.544E+01
DAV:   5    -0.408929574886E+02   -0.19830E+01   -0.19354E+01   384   0.195E+01
DAV:   6    -0.410289572346E+02   -0.13600E+00   -0.13577E+00   392   0.423E+00
DAV:   7    -0.410375497170E+02   -0.85925E-02   -0.85738E-02   312   0.919E-01
DAV:   8    -0.410380019558E+02   -0.45224E-03   -0.45223E-03   392   0.322E-01    0.190E+01
DAV:   9    -0.397916996772E+02    0.12463E+01   -0.89728E+00   245   0.567E+01    0.300E+01
DAV:  10    -0.396659347325E+02    0.12576E+00   -0.26761E+00   277   0.446E+01    0.174E+01
DAV:  11    -0.396211717017E+02    0.44763E-01   -0.12696E+00   328   0.432E+01    0.242E+01
DAV:  12    -0.398916525029E+02   -0.27048E+00   -0.59179E-01   344   0.127E+01    0.323E+01
DAV:  13    -0.396413757848E+02    0.25028E+00   -0.50018E-01   304   0.211E+01    0.195E+01
DAV:  14    -0.397756704464E+02   -0.13429E+00   -0.14276E-01   282   0.132E+01    0.176E+01
DAV:  15    -0.397559642811E+02    0.19706E-01   -0.27767E-01   288   0.586E+00    0.163E+01
DAV:  16    -0.396779066159E+02    0.78058E-01   -0.24579E-01   314   0.117E+01    0.700E+00
DAV:  17    -0.396887113813E+02   -0.10805E-01   -0.94038E-02   360   0.432E+00    0.781E+00
DAV:  18    -0.396877082012E+02    0.10032E-02   -0.22244E-02   344   0.268E+00    0.462E+00
DAV:  19    -0.396872569181E+02    0.45128E-03   -0.98774E-03   240   0.545E-01    0.454E+00
DAV:  20    -0.396880818375E+02   -0.82492E-03   -0.14542E-03   336   0.776E-01    0.124E+00
DAV:  21    -0.396889011550E+02   -0.81932E-03   -0.12726E-03   301   0.705E-01    0.873E-01
DAV:  22    -0.396908445901E+02   -0.19434E-02   -0.41880E-04   357   0.388E-01    0.388E-01
DAV:  23    -0.396860833294E+02    0.47613E-02   -0.68050E-04   284   0.278E-01    0.279E-01
DAV:  24    -0.396872789901E+02   -0.11957E-02   -0.13305E-04   268   0.105E-01    0.284E-01
DAV:  25    -0.396873915450E+02   -0.11255E-03   -0.79501E-05   234   0.183E-01    0.333E-01
DAV:  26    -0.396877401641E+02   -0.34862E-03   -0.54703E-05   290   0.933E-02    0.182E-01
DAV:  27    -0.396879716490E+02   -0.23148E-03   -0.18623E-05   304   0.308E-02    0.164E-01
DAV:  28    -0.396880453537E+02   -0.73705E-04   -0.21604E-06   312   0.831E-03    0.165E-01
DAV:  29    -0.396880298721E+02    0.15482E-04   -0.72982E-07   296   0.228E-02    0.198E-01
DAV:  30    -0.396881029977E+02   -0.73126E-04   -0.73291E-07   280   0.249E-02    0.228E-01
DAV:  31    -0.396871512119E+02    0.95179E-03   -0.31434E-05   228   0.168E-01    0.215E-01
DAV:  32    -0.396871506467E+02    0.56521E-06   -0.75964E-06   340   0.336E-02    0.224E-01
DAV:  33    -0.396874081292E+02   -0.25748E-03   -0.42325E-06   260   0.349E-02    0.198E-01
DAV:  34    -0.396879948593E+02   -0.58673E-03   -0.14008E-05   236   0.109E-01    0.145E-01
DAV:  35    -0.396895504377E+02   -0.15556E-02   -0.13790E-04   236   0.364E-01    0.273E-01
DAV:  36    -0.396875796232E+02    0.19708E-02   -0.23322E-04   236   0.243E-01    0.149E-01
DAV:  37    -0.396876268841E+02   -0.47261E-04   -0.18315E-05   236   0.110E-01    0.109E-01
DAV:  38    -0.396872224856E+02    0.40440E-03   -0.16387E-05   287   0.125E-01    0.107E-01
DAV:  39    -0.396865441270E+02    0.67836E-03   -0.27384E-05   295   0.128E-01    0.142E-01
DAV:  40    -0.396874014955E+02   -0.85737E-03   -0.28551E-05   268   0.105E-01    0.129E-01
DAV:  41    -0.396875726944E+02   -0.17120E-03   -0.28283E-06   293   0.313E-02    0.103E-01
DAV:  42    -0.396878784169E+02   -0.30572E-03   -0.40081E-06   236   0.568E-02    0.973E-02
DAV:  43    -0.396885219769E+02   -0.64356E-03   -0.21597E-05   220   0.144E-01    0.995E-02
DAV:  44    -0.396887217006E+02   -0.19972E-03   -0.15877E-05   375   0.699E-02    0.993E-02
DAV:  45    -0.396879169663E+02    0.80473E-03   -0.34714E-05   244   0.125E-01    0.915E-02
DAV:  46    -0.396865796337E+02    0.13373E-02   -0.57952E-05   236   0.237E-01    0.112E-01
DAV:  47    -0.396864000709E+02    0.17956E-03   -0.25838E-05   324   0.783E-02    0.127E-01
DAV:  48    -0.396847691136E+02    0.16310E-02   -0.36180E-05   236   0.186E-01    0.164E-01
DAV:  49    -0.396859039936E+02   -0.11349E-02   -0.21657E-05   228   0.112E-01    0.140E-01
DAV:  50    -0.396875438143E+02   -0.16398E-02   -0.62989E-05   244   0.224E-01    0.108E-01
DAV:  51    -0.396887722885E+02   -0.12285E-02   -0.10880E-04   268   0.278E-01    0.102E-01
DAV:  52    -0.396915442435E+02   -0.27720E-02   -0.14394E-04   247   0.386E-01    0.339E-01
DAV:  53    -0.396978216154E+02   -0.62774E-02   -0.42284E-04   268   0.391E-01    0.798E-01
DAV:  54    -0.396879787384E+02    0.98429E-02   -0.32503E-03   236   0.341E-01    0.880E-01
DAV:  55    -0.396922932735E+02   -0.43145E-02   -0.38572E-04   268   0.245E-01    0.117E+00
DAV:  56    -0.396857370203E+02    0.65563E-02   -0.12087E-03   236   0.202E-01    0.123E+00
DAV:  57    -0.396786713989E+02    0.70656E-02   -0.24685E-04   282   0.120E-01    0.116E+00
DAV:  58    -0.396919605048E+02   -0.13289E-01   -0.14836E-04   260   0.213E-01    0.139E+00
DAV:  59    -0.396799982485E+02    0.11962E-01   -0.56743E-04   236   0.173E-01    0.130E+00
DAV:  60    -0.396723946873E+02    0.76036E-02   -0.32867E-05   304   0.152E-01    0.110E+00
DAV:  61    -0.396703076385E+02    0.20870E-02   -0.27819E-04   260   0.213E-01    0.847E-01
DAV:  62    -0.396713263161E+02   -0.10187E-02   -0.14268E-03   268   0.305E-01    0.527E-01
DAV:  63    -0.396795255333E+02   -0.81992E-02   -0.18635E-03   244   0.278E-01    0.381E-01
DAV:  64    -0.396792591547E+02    0.26638E-03   -0.31497E-04   253   0.390E-01    0.177E-01
DAV:  65    -0.396881853032E+02   -0.89261E-02   -0.18344E-03   244   0.300E-01    0.161E-01
DAV:  66    -0.396901781833E+02   -0.19929E-02   -0.85925E-05   336   0.183E-01    0.248E-01
DAV:  67    -0.396865883495E+02    0.35898E-02   -0.25529E-04   236   0.210E-01    0.150E-01
DAV:  68    -0.396855469705E+02    0.10414E-02   -0.76176E-05   304   0.287E-01    0.107E-01
DAV:  69    -0.396874933058E+02   -0.19463E-02   -0.17487E-04   260   0.102E-01    0.876E-02
DAV:  70    -0.396881037337E+02   -0.61043E-03   -0.24327E-05   271   0.689E-02    0.986E-02
DAV:  71    -0.396887419688E+02   -0.63824E-03   -0.21694E-05   228   0.138E-01    0.108E-01
DAV:  72    -0.396888361471E+02   -0.94178E-04   -0.10910E-05   284   0.589E-02    0.111E-01
DAV:  73    -0.396886910300E+02    0.14512E-03   -0.64680E-06   276   0.242E-02    0.114E-01
DAV:  74    -0.396883188000E+02    0.37223E-03   -0.54447E-06   260   0.472E-02    0.102E-01
DAV:  75    -0.396877839642E+02    0.53484E-03   -0.10758E-05   236   0.108E-01    0.890E-02
DAV:  76    -0.396879278709E+02   -0.14391E-03   -0.10324E-05   260   0.520E-02    0.891E-02
DAV:  77    -0.396880115609E+02   -0.83690E-04   -0.25785E-06   284   0.191E-02    0.886E-02
DAV:  78    -0.396884349464E+02   -0.42339E-03   -0.89376E-06   236   0.801E-02    0.932E-02
DAV:  79    -0.396885545447E+02   -0.11960E-03   -0.33611E-06   328   0.415E-02    0.928E-02
DAV:  80    -0.396884827763E+02    0.71768E-04   -0.18837E-06   284   0.135E-02    0.937E-02
DAV:  81    -0.396883343561E+02    0.14842E-03   -0.11744E-06   252   0.220E-02    0.899E-02
DAV:  82    -0.396881535949E+02    0.18076E-03   -0.15138E-06   236   0.390E-02    0.869E-02
DAV:  83    -0.396878713546E+02    0.28224E-03   -0.41630E-06   252   0.669E-02    0.837E-02
DAV:  84    -0.396881019823E+02   -0.23063E-03   -0.47181E-06   252   0.239E-02    0.867E-02
DAV:  85    -0.396878873083E+02    0.21467E-03   -0.19719E-06   228   0.420E-02    0.858E-02
DAV:  86    -0.396878557815E+02    0.31527E-04   -0.10901E-06   340   0.168E-02    0.890E-02
DAV:  87    -0.396879039880E+02   -0.48207E-04   -0.28766E-07   252   0.520E-03    0.888E-02
DAV:  88    -0.396878603686E+02    0.43619E-04   -0.86622E-08   232   0.879E-03    0.883E-02
DAV:  89    -0.396879377183E+02   -0.77350E-04   -0.26100E-07   228   0.134E-02    0.878E-02
DAV:  90    -0.396878857702E+02    0.51948E-04   -0.11890E-07   220   0.833E-03    0.883E-02
DAV:  91    -0.396878690657E+02    0.16705E-04   -0.20786E-08   178   0.419E-03    0.877E-02
DAV:  92    -0.396878698376E+02   -0.77187E-06   -0.48370E-09   138   0.117E-03    0.877E-02
DAV:  93    -0.396878156212E+02    0.54216E-04   -0.12775E-07   236   0.100E-02    0.881E-02
DAV:  94    -0.396879970330E+02   -0.18141E-03   -0.13505E-06   228   0.331E-02    0.880E-02
DAV:  95    -0.396877566483E+02    0.24038E-03   -0.22987E-06   228   0.407E-02    0.893E-02
DAV:  96    -0.396875276439E+02    0.22900E-03   -0.22961E-06   244   0.450E-02    0.922E-02
DAV:  97    -0.396874340281E+02    0.93616E-04   -0.15848E-06   360   0.226E-02    0.985E-02
DAV:  98    -0.396872684496E+02    0.16558E-03   -0.85267E-07   244   0.299E-02    0.102E-01
DAV:  99    -0.396868195344E+02    0.44892E-03   -0.51501E-06   236   0.684E-02    0.110E-01
DAV: 100    -0.396868500584E+02   -0.30524E-04   -0.18773E-06   252   0.685E-03    0.112E-01
DAV: 101    -0.396868497065E+02    0.35187E-06   -0.35316E-07   264   0.261E-03    0.114E-01
DAV: 102    -0.396870294508E+02   -0.17974E-03   -0.81038E-07   228   0.254E-02    0.111E-01
DAV: 103    -0.396871044444E+02   -0.74994E-04   -0.38678E-07   308   0.122E-02    0.107E-01
DAV: 104    -0.396861783714E+02    0.92607E-03   -0.17912E-05   236   0.121E-01    0.129E-01
DAV: 105    -0.396871041973E+02   -0.92583E-03   -0.17239E-05   220   0.117E-01    0.109E-01
DAV: 106    -0.396878926570E+02   -0.78846E-03   -0.23611E-05   236   0.137E-01    0.972E-02
DAV: 107    -0.396881150712E+02   -0.22241E-03   -0.96171E-06   381   0.570E-02    0.864E-02
DAV: 108    -0.396886239991E+02   -0.50893E-03   -0.13608E-05   244   0.122E-01    0.963E-02
DAV: 109    -0.396896207150E+02   -0.99672E-03   -0.38958E-05   260   0.203E-01    0.172E-01
DAV: 110    -0.396897436876E+02   -0.12297E-03   -0.66664E-05   252   0.116E-01    0.218E-01
DAV: 111    -0.396894908077E+02    0.25288E-03   -0.57059E-05   260   0.953E-02    0.273E-01
DAV: 112    -0.396886926009E+02    0.79821E-03   -0.59366E-05   268   0.737E-02    0.310E-01
DAV: 113    -0.396873006283E+02    0.13920E-02   -0.48391E-05   236   0.449E-02    0.303E-01
DAV: 114    -0.396869803292E+02    0.32030E-03   -0.25536E-06   365   0.155E-02    0.295E-01
DAV: 115    -0.396878425202E+02   -0.86219E-03   -0.49978E-06   220   0.400E-02    0.331E-01
DAV: 116    -0.396872614554E+02    0.58106E-03   -0.12987E-05   244   0.273E-02    0.344E-01
DAV: 117    -0.396873233267E+02   -0.61871E-04   -0.32646E-06   244   0.303E-02    0.375E-01
DAV: 118    -0.396862691906E+02    0.10541E-02   -0.19999E-05   236   0.311E-02    0.363E-01
DAV: 119    -0.396839752889E+02    0.22939E-02   -0.23382E-05   228   0.130E-01    0.238E-01
DAV: 120    -0.396865547671E+02   -0.25795E-02   -0.20115E-04   244   0.103E-01    0.199E-01
DAV: 121    -0.396872220123E+02   -0.66725E-03   -0.36249E-05   271   0.766E-02    0.161E-01
DAV: 122    -0.396873805049E+02   -0.15849E-03   -0.17502E-05   228   0.913E-02    0.120E-01
DAV: 123    -0.396882104723E+02   -0.82997E-03   -0.41615E-05   268   0.528E-02    0.113E-01
DAV: 124    -0.396876657025E+02    0.54477E-03   -0.11896E-05   304   0.110E-01    0.858E-02
DAV: 125    -0.396886774746E+02   -0.10118E-02   -0.44435E-05   244   0.959E-02    0.988E-02
DAV: 126    -0.396885261696E+02    0.15130E-03   -0.31744E-06   279   0.144E-02    0.971E-02
DAV: 127    -0.396884695134E+02    0.56656E-04   -0.15434E-07   296   0.892E-03    0.950E-02
DAV: 128    -0.396884961806E+02   -0.26667E-04   -0.14236E-07   244   0.241E-03    0.949E-02
DAV: 129    -0.396885830553E+02   -0.86875E-04   -0.25908E-07   228   0.136E-02    0.986E-02
DAV: 130    -0.396887164542E+02   -0.13340E-03   -0.66915E-07   260   0.269E-02    0.106E-01
DAV: 131    -0.396888007518E+02   -0.84298E-04   -0.13647E-06   260   0.298E-02    0.115E-01
DAV: 132    -0.396887985429E+02    0.22089E-05   -0.17226E-06   276   0.258E-02    0.123E-01
DAV: 133    -0.396886822231E+02    0.11632E-03   -0.19530E-06   268   0.139E-02    0.126E-01
DAV: 134    -0.396898323495E+02   -0.11501E-02   -0.18020E-05   236   0.132E-01    0.208E-01
DAV: 135    -0.396888572255E+02    0.97512E-03   -0.71681E-05   244   0.671E-02    0.222E-01
DAV: 136    -0.396882428684E+02    0.61436E-03   -0.15676E-05   244   0.275E-02    0.224E-01
DAV: 137    -0.396881071051E+02    0.13576E-03   -0.13104E-06   311   0.102E-02    0.228E-01
DAV: 138    -0.396879237851E+02    0.18332E-03   -0.79616E-07   250   0.734E-03    0.226E-01
DAV: 139    -0.396873562647E+02    0.56752E-03   -0.22422E-06   228   0.434E-02    0.192E-01
DAV: 140    -0.396873707963E+02   -0.14532E-04   -0.81895E-06   244   0.627E-02    0.154E-01
DAV: 141    -0.396878867705E+02   -0.51597E-03   -0.21218E-05   276   0.562E-02    0.134E-01
DAV: 142    -0.396881787241E+02   -0.29195E-03   -0.95524E-06   284   0.405E-02    0.121E-01
DAV: 143    -0.396882994287E+02   -0.12070E-03   -0.36774E-06   260   0.314E-02    0.111E-01
DAV: 144    -0.396882724425E+02    0.26986E-04   -0.18508E-06   290   0.348E-02    0.992E-02
DAV: 145    -0.396880888111E+02    0.18363E-03   -0.28631E-06   290   0.574E-02    0.864E-02
DAV: 146    -0.396883364472E+02   -0.24764E-03   -0.80725E-06   268   0.234E-02    0.866E-02
DAV: 147    -0.396884091593E+02   -0.72712E-04   -0.87574E-07   268   0.643E-03    0.872E-02
DAV: 148    -0.396884538137E+02   -0.44654E-04   -0.13557E-07   271   0.606E-03    0.880E-02
DAV: 149    -0.396879551455E+02    0.49867E-03   -0.90086E-06   220   0.877E-02    0.788E-02
DAV: 150    -0.396878758363E+02    0.79309E-04   -0.57040E-06   300   0.540E-02    0.804E-02
DAV: 151    -0.396879079743E+02   -0.32138E-04   -0.17353E-06   268   0.227E-02    0.820E-02
DAV: 152    -0.396880368453E+02   -0.12887E-03   -0.12033E-06   284   0.177E-02    0.818E-02
DAV: 153    -0.396878388007E+02    0.19804E-03   -0.16091E-06   228   0.363E-02    0.831E-02
DAV: 154    -0.396882020406E+02   -0.36324E-03   -0.56303E-06   228   0.655E-02    0.825E-02
DAV: 155    -0.396884473604E+02   -0.24532E-03   -0.43142E-06   260   0.610E-02    0.851E-02
DAV: 156    -0.396883624181E+02    0.84942E-04   -0.28149E-06   268   0.123E-02    0.833E-02
DAV: 157    -0.396883020075E+02    0.60411E-04   -0.32837E-07   276   0.800E-03    0.853E-02
DAV: 158    -0.396883013831E+02    0.62441E-06   -0.77799E-09   168   0.126E-03    0.858E-02
DAV: 159    -0.396883097796E+02   -0.83965E-05   -0.81977E-09   154   0.168E-03    0.844E-02
DAV: 160    -0.396884533517E+02   -0.14357E-03   -0.96496E-07   228   0.282E-02    0.863E-02
DAV: 161    -0.396884155882E+02    0.37763E-04   -0.46285E-07   252   0.676E-03    0.857E-02
DAV: 162    -0.396883072513E+02    0.10834E-03   -0.57804E-07   236   0.179E-02    0.845E-02
DAV: 163    -0.396882317887E+02    0.75463E-04   -0.36166E-07   247   0.192E-02    0.837E-02
DAV: 164    -0.396882422723E+02   -0.10484E-04   -0.33093E-07   260   0.918E-03    0.830E-02
DAV: 165    -0.396883598396E+02   -0.11757E-03   -0.71676E-07   236   0.200E-02    0.841E-02
DAV: 166    -0.396883816542E+02   -0.21815E-04   -0.19585E-07   295   0.956E-03    0.852E-02
DAV: 167    -0.396882227771E+02    0.15888E-03   -0.11933E-06   228   0.275E-02    0.840E-02
DAV: 168    -0.396881019530E+02    0.12082E-03   -0.93233E-07   260   0.304E-02    0.845E-02
DAV: 169    -0.396878387171E+02    0.26324E-03   -0.33360E-06   244   0.585E-02    0.881E-02
DAV: 170    -0.396877684027E+02    0.70314E-04   -0.30464E-06   348   0.320E-02    0.901E-02
DAV: 171    -0.396872409993E+02    0.52740E-03   -0.88610E-06   236   0.955E-02    0.103E-01
DAV: 172    -0.396878518457E+02   -0.61085E-03   -0.13093E-05   228   0.921E-02    0.872E-02
DAV: 173    -0.396882728709E+02   -0.42103E-03   -0.10469E-05   268   0.923E-02    0.810E-02
DAV: 174    -0.396883108501E+02   -0.37979E-04   -0.30715E-06   308   0.294E-02    0.791E-02
DAV: 175    -0.396887821518E+02   -0.47130E-03   -0.10767E-05   236   0.108E-01    0.927E-02
DAV: 176    -0.396893083358E+02   -0.52618E-03   -0.18551E-05   338   0.115E-01    0.131E-01
DAV: 177    -0.396896367212E+02   -0.32839E-03   -0.21998E-05   268   0.105E-01    0.186E-01
DAV: 178    -0.396889587335E+02    0.67799E-03   -0.52995E-05   252   0.645E-02    0.206E-01
DAV: 179    -0.396908394231E+02   -0.18807E-02   -0.18511E-05   292   0.147E-01    0.364E-01
DAV: 180    -0.396881835737E+02    0.26558E-02   -0.29112E-04   236   0.120E-01    0.400E-01
DAV: 181    -0.396862613606E+02    0.19222E-02   -0.82936E-05   244   0.549E-02    0.395E-01
DAV: 182    -0.396857438664E+02    0.51749E-03   -0.38537E-06   336   0.180E-02    0.382E-01
DAV: 183    -0.396833305054E+02    0.24134E-02   -0.21507E-05   228   0.137E-01    0.245E-01
DAV: 184    -0.396857796533E+02   -0.24491E-02   -0.22955E-04   260   0.140E-01    0.177E-01
DAV: 185    -0.396888014441E+02   -0.30218E-02   -0.18117E-04   260   0.129E-01    0.225E-01
DAV: 186    -0.396879791796E+02    0.82226E-03   -0.18258E-05   244   0.323E-02    0.216E-01
DAV: 187    -0.396875218121E+02    0.45737E-03   -0.17500E-06   258   0.382E-02    0.188E-01
DAV: 188    -0.396889656902E+02   -0.14439E-02   -0.26578E-05   236   0.803E-02    0.238E-01
DAV: 189    -0.396883413982E+02    0.62429E-03   -0.19203E-05   236   0.369E-02    0.255E-01
DAV: 190    -0.396879673261E+02    0.37407E-03   -0.69440E-06   260   0.216E-02    0.264E-01
DAV: 191    -0.396876746148E+02    0.29271E-03   -0.26081E-06   228   0.101E-02    0.263E-01
DAV: 192    -0.396876068197E+02    0.67795E-04   -0.23457E-07   269   0.288E-03    0.263E-01
DAV: 193    -0.396876633688E+02   -0.56549E-04   -0.18686E-08   226   0.401E-03    0.266E-01
DAV: 194    -0.396873614802E+02    0.30189E-03   -0.77814E-07   236   0.152E-02    0.255E-01
DAV: 195    -0.396878071853E+02   -0.44571E-03   -0.26017E-06   236   0.181E-02    0.267E-01
DAV: 196    -0.396873519369E+02    0.45525E-03   -0.21165E-06   236   0.209E-02    0.252E-01
DAV: 197    -0.396878286880E+02   -0.47675E-03   -0.32340E-06   236   0.185E-02    0.261E-01
DAV: 198    -0.396874843246E+02    0.34436E-03   -0.14208E-06   236   0.146E-02    0.252E-01
DAV: 199    -0.396877947307E+02   -0.31041E-03   -0.12977E-06   228   0.129E-02    0.261E-01
DAV: 200    -0.396875540048E+02    0.24073E-03   -0.76740E-07   228   0.969E-03    0.255E-01
DAV: 201    -0.396875978347E+02   -0.43830E-04   -0.17119E-07   212   0.496E-03    0.251E-01
DAV: 202    -0.396880023746E+02   -0.40454E-03   -0.13175E-06   244   0.222E-02    0.269E-01
DAV: 203    -0.396876607549E+02    0.34162E-03   -0.33757E-06   236   0.118E-02    0.271E-01
DAV: 204    -0.396884916393E+02   -0.83088E-03   -0.27494E-06   228   0.522E-02    0.324E-01
DAV: 205    -0.396873372632E+02    0.11544E-02   -0.38048E-05   236   0.392E-02    0.332E-01
DAV: 206    -0.396868005675E+02    0.53670E-03   -0.62960E-06   252   0.160E-02    0.329E-01
DAV: 207    -0.396866050214E+02    0.19555E-03   -0.33170E-07   312   0.952E-03    0.320E-01
DAV: 208    -0.396870485303E+02   -0.44351E-03   -0.19355E-06   236   0.166E-02    0.333E-01
DAV: 209    -0.396863333337E+02    0.71520E-03   -0.41943E-06   228   0.290E-02    0.309E-01
DAV: 210    -0.396862653628E+02    0.67971E-04   -0.32427E-06   220   0.366E-02    0.275E-01
DAV: 211    -0.396866527627E+02   -0.38740E-03   -0.14427E-05   260   0.453E-02    0.245E-01
DAV: 212    -0.396866421510E+02    0.10612E-04   -0.97967E-06   220   0.666E-02    0.196E-01
DAV: 213    -0.396879070772E+02   -0.12649E-02   -0.49012E-05   220   0.462E-02    0.194E-01
DAV: 214    -0.396856308751E+02    0.22762E-02   -0.66652E-05   228   0.242E-01    0.100E-01
DAV: 215    -0.396876761696E+02   -0.20453E-02   -0.16319E-04   260   0.117E-01    0.957E-02
DAV: 216    -0.396880042862E+02   -0.32812E-03   -0.21329E-05   303   0.552E-02    0.930E-02
DAV: 217    -0.396881784258E+02   -0.17414E-03   -0.53016E-06   252   0.151E-02    0.929E-02
DAV: 218    -0.396882266980E+02   -0.48272E-04   -0.87891E-07   344   0.749E-03    0.886E-02
DAV: 219    -0.396881473212E+02    0.79377E-04   -0.28905E-07   247   0.163E-02    0.823E-02
DAV: 220    -0.396879850391E+02    0.16228E-03   -0.12052E-06   236   0.352E-02    0.808E-02
DAV: 221    -0.396877614403E+02    0.22360E-03   -0.31558E-06   268   0.501E-02    0.822E-02
DAV: 222    -0.396874568665E+02    0.30457E-03   -0.46083E-06   268   0.632E-02    0.921E-02
DAV: 223    -0.396877375057E+02   -0.28064E-03   -0.38922E-06   244   0.385E-02    0.879E-02
DAV: 224    -0.396877997964E+02   -0.62291E-04   -0.41554E-07   303   0.137E-02    0.892E-02
DAV: 225    -0.396883363934E+02   -0.53660E-03   -0.13710E-05   236   0.111E-01    0.864E-02
DAV: 226    -0.396881695921E+02    0.16680E-03   -0.45809E-06   252   0.207E-02    0.821E-02
DAV: 227    -0.396881910029E+02   -0.21411E-04   -0.20366E-07   272   0.661E-03    0.803E-02
DAV: 228    -0.396881223249E+02    0.68678E-04   -0.25064E-07   228   0.122E-02    0.812E-02
DAV: 229    -0.396885316271E+02   -0.40930E-03   -0.78978E-06   228   0.828E-02    0.892E-02
DAV: 230    -0.396885009799E+02    0.30647E-04   -0.27994E-06   276   0.230E-02    0.884E-02
DAV: 231    -0.396885224757E+02   -0.21496E-04   -0.69443E-07   284   0.177E-02    0.896E-02
DAV: 232    -0.396884891085E+02    0.33367E-04   -0.58289E-07   292   0.747E-03    0.904E-02
DAV: 233    -0.396884307968E+02    0.58312E-04   -0.23155E-07   244   0.749E-03    0.887E-02
DAV: 234    -0.396887217277E+02   -0.29093E-03   -0.30362E-06   228   0.508E-02    0.101E-01
DAV: 235    -0.396884311860E+02    0.29054E-03   -0.46279E-06   228   0.326E-02    0.946E-02
DAV: 236    -0.396884055272E+02    0.25659E-04   -0.22081E-07   266   0.129E-02    0.903E-02
DAV: 237    -0.396882925857E+02    0.11294E-03   -0.63102E-07   244   0.272E-02    0.843E-02
DAV: 238    -0.396879504212E+02    0.34216E-03   -0.51006E-06   236   0.752E-02    0.776E-02
DAV: 239    -0.396878946169E+02    0.55804E-04   -0.56174E-06   300   0.496E-02    0.786E-02
DAV: 240    -0.396876499442E+02    0.24467E-03   -0.32782E-06   276   0.622E-02    0.834E-02
DAV: 241    -0.396876148144E+02    0.35130E-04   -0.25990E-06   316   0.258E-02    0.867E-02
DAV: 242    -0.396876303870E+02   -0.15573E-04   -0.45199E-07   276   0.721E-03    0.871E-02
DAV: 243    -0.396876000001E+02    0.30387E-04   -0.88137E-08   264   0.692E-03    0.880E-02
DAV: 244    -0.396872888333E+02    0.31117E-03   -0.30502E-06   236   0.521E-02    0.963E-02
DAV: 245    -0.396874442588E+02   -0.15543E-03   -0.11527E-06   252   0.207E-02    0.928E-02
DAV: 246    -0.396873617518E+02    0.82507E-04   -0.31217E-07   292   0.130E-02    0.949E-02
DAV: 247    -0.396873519818E+02    0.97699E-05   -0.23726E-08   207   0.260E-03    0.956E-02
DAV: 248    -0.396874783378E+02   -0.12636E-03   -0.46063E-07   220   0.207E-02    0.926E-02
DAV: 249    -0.396874464513E+02    0.31887E-04   -0.66639E-08   220   0.425E-03    0.932E-02
DAV: 250    -0.396877028102E+02   -0.25636E-03   -0.21891E-06   220   0.443E-02    0.878E-02
DAV: 251    -0.396878673366E+02   -0.16453E-03   -0.22940E-06   308   0.347E-02    0.836E-02
DAV: 252    -0.396879698857E+02   -0.10255E-03   -0.91518E-07   319   0.249E-02    0.814E-02
DAV: 253    -0.396880516135E+02   -0.81728E-04   -0.43224E-07   266   0.209E-02    0.795E-02
DAV: 254    -0.396886122317E+02   -0.56062E-03   -0.16114E-05   236   0.126E-01    0.889E-02
DAV: 255    -0.396887450002E+02   -0.13277E-03   -0.96062E-06   316   0.594E-02    0.932E-02
DAV: 256    -0.396886208780E+02    0.12412E-03   -0.51781E-06   276   0.213E-02    0.946E-02
DAV: 257    -0.396886616197E+02   -0.40742E-04   -0.49746E-07   279   0.197E-02    0.101E-01
DAV: 258    -0.396886252072E+02    0.36412E-04   -0.78965E-07   276   0.114E-02    0.102E-01
DAV: 259    -0.396891875711E+02   -0.56236E-03   -0.76479E-06   236   0.878E-02    0.140E-01
DAV: 260    -0.396888742655E+02    0.31331E-03   -0.16117E-05   260   0.386E-02    0.146E-01
DAV: 261    -0.396885769495E+02    0.29732E-03   -0.53789E-06   244   0.173E-02    0.145E-01
DAV: 262    -0.396890077762E+02   -0.43083E-03   -0.24103E-06   236   0.474E-02    0.174E-01
DAV: 263    -0.396885938038E+02    0.41397E-03   -0.95757E-06   252   0.228E-02    0.176E-01
DAV: 264    -0.396875588214E+02    0.10350E-02   -0.14532E-05   228   0.889E-02    0.131E-01
DAV: 265    -0.396881574581E+02   -0.59864E-03   -0.20797E-05   260   0.463E-02    0.120E-01
DAV: 266    -0.396883174789E+02   -0.16002E-03   -0.50095E-06   292   0.317E-02    0.110E-01
DAV: 267    -0.396883966008E+02   -0.79122E-04   -0.19139E-06   268   0.221E-02    0.106E-01
DAV: 268    -0.396882078257E+02    0.18878E-03   -0.16974E-06   296   0.436E-02    0.970E-02
DAV: 269    -0.396875366620E+02    0.67116E-03   -0.17333E-05   244   0.140E-01    0.810E-02
DAV: 270    -0.396874903506E+02    0.46311E-04   -0.19433E-05   292   0.936E-02    0.926E-02
DAV: 271    -0.396871111423E+02    0.37921E-03   -0.78077E-06   316   0.899E-02    0.106E-01
DAV: 272    -0.396871536871E+02   -0.42545E-04   -0.45951E-06   284   0.189E-02    0.109E-01
DAV: 273    -0.396871792779E+02   -0.25591E-04   -0.68713E-07   300   0.392E-03    0.109E-01
DAV: 274    -0.396877840840E+02   -0.60481E-03   -0.11693E-05   228   0.101E-01    0.107E-01
DAV: 275    -0.396876490222E+02    0.13506E-03   -0.23558E-06   284   0.178E-02    0.101E-01
DAV: 276    -0.396873542825E+02    0.29474E-03   -0.27604E-06   236   0.486E-02    0.104E-01
DAV: 277    -0.396873433347E+02    0.10948E-04   -0.48857E-07   303   0.842E-03    0.106E-01
DAV: 278    -0.396868916914E+02    0.45164E-03   -0.52848E-06   236   0.684E-02    0.113E-01
DAV: 279    -0.396870474931E+02   -0.15580E-03   -0.13848E-06   276   0.181E-02    0.113E-01
DAV: 280    -0.396870702911E+02   -0.22798E-04   -0.63425E-08   223   0.340E-03    0.113E-01
DAV: 281    -0.396871421535E+02   -0.71862E-04   -0.18211E-07   228   0.106E-02    0.112E-01
DAV: 282    -0.396871899557E+02   -0.47802E-04   -0.13375E-07   268   0.792E-03    0.111E-01
DAV: 283    -0.396871844000E+02    0.55557E-05   -0.21648E-08   156   0.747E-04    0.111E-01
DAV: 284    -0.396874277236E+02   -0.24332E-03   -0.17018E-06   236   0.382E-02    0.107E-01
DAV: 285    -0.396878547037E+02   -0.42698E-03   -0.69180E-06   236   0.781E-02    0.103E-01
DAV: 286    -0.396880770938E+02   -0.22239E-03   -0.65325E-06   364   0.522E-02    0.890E-02
DAV: 287    -0.396880444291E+02    0.32665E-04   -0.11915E-06   268   0.916E-03    0.869E-02
DAV: 288    -0.396881716321E+02   -0.12720E-03   -0.79835E-07   244   0.285E-02    0.861E-02
DAV: 289    -0.396882598312E+02   -0.88199E-04   -0.99217E-07   335   0.243E-02    0.825E-02
DAV: 290    -0.396882338345E+02    0.25997E-04   -0.36583E-07   252   0.614E-03    0.825E-02
DAV: 291    -0.396882285220E+02    0.53125E-05   -0.28198E-08   188   0.263E-03    0.826E-02
DAV: 292    -0.396881794359E+02    0.49086E-04   -0.13249E-07   244   0.916E-03    0.815E-02
DAV: 293    -0.396882654197E+02   -0.85984E-04   -0.33916E-07   220   0.155E-02    0.831E-02
DAV: 294    -0.396880347251E+02    0.23069E-03   -0.22525E-06   220   0.422E-02    0.794E-02
DAV: 295    -0.396880299520E+02    0.47731E-05   -0.60832E-07   308   0.138E-02    0.809E-02
DAV: 296    -0.396880584006E+02   -0.28449E-04   -0.16409E-07   228   0.286E-03    0.808E-02
DAV: 297    -0.396880651526E+02   -0.67521E-05   -0.87975E-09   124   0.848E-04    0.809E-02
DAV: 298    -0.396880554418E+02    0.97108E-05   -0.39510E-09   119   0.211E-03    0.807E-02
DAV: 299    -0.396882399068E+02   -0.18446E-03   -0.14810E-06   220   0.370E-02    0.817E-02
DAV: 300    -0.396884849551E+02   -0.24505E-03   -0.34285E-06   252   0.583E-02    0.853E-02
DAV: 301    -0.396883610938E+02    0.12386E-03   -0.29112E-06   252   0.129E-02    0.816E-02
DAV: 302    -0.396883942608E+02   -0.33167E-04   -0.15878E-07   277   0.950E-03    0.816E-02
DAV: 303    -0.396884299537E+02   -0.35693E-04   -0.15570E-07   254   0.106E-02    0.827E-02
DAV: 304    -0.396891331056E+02   -0.70315E-03   -0.19127E-05   236   0.136E-01    0.124E-01
DAV: 305    -0.396893161286E+02   -0.18302E-03   -0.18236E-05   276   0.845E-02    0.152E-01
DAV: 306    -0.396893762047E+02   -0.60076E-04   -0.18941E-05   284   0.778E-02    0.194E-01
DAV: 307    -0.396886650815E+02    0.71112E-03   -0.33251E-05   244   0.447E-02    0.204E-01
DAV: 308    -0.396886251000E+02    0.39982E-04   -0.32421E-06   247   0.313E-02    0.225E-01
DAV: 309    -0.396882660627E+02    0.35904E-03   -0.74425E-06   260   0.223E-02    0.232E-01
DAV: 310    -0.396876909138E+02    0.57515E-03   -0.48490E-06   252   0.288E-02    0.214E-01
DAV: 311    -0.396883566922E+02   -0.66578E-03   -0.57648E-06   236   0.339E-02    0.235E-01
DAV: 312    -0.396881092718E+02    0.24742E-03   -0.31514E-06   252   0.164E-02    0.243E-01
DAV: 313    -0.396879990012E+02    0.11027E-03   -0.13749E-06   260   0.136E-02    0.251E-01
DAV: 314    -0.396843117360E+02    0.36873E-02   -0.13643E-04   220   0.292E-01    0.117E-01
DAV: 315    -0.396871303025E+02   -0.28186E-02   -0.28511E-04   260   0.178E-01    0.919E-02
DAV: 316    -0.396885019483E+02   -0.13716E-02   -0.10171E-04   284   0.118E-01    0.101E-01
DAV: 317    -0.396882611769E+02    0.24077E-03   -0.40253E-06   298   0.389E-02    0.919E-02
DAV: 318    -0.396880210384E+02    0.24014E-03   -0.30345E-06   277   0.566E-02    0.866E-02
DAV: 319    -0.396882656188E+02   -0.24458E-03   -0.45137E-06   260   0.266E-02    0.824E-02
DAV: 320    -0.396878050765E+02    0.46054E-03   -0.86604E-06   228   0.867E-02    0.783E-02
DAV: 321    -0.396875788894E+02    0.22619E-03   -0.68887E-06   349   0.609E-02    0.906E-02
DAV: 322    -0.396875127592E+02    0.66130E-04   -0.18953E-06   340   0.282E-02    0.943E-02
DAV: 323    -0.396876640925E+02   -0.15133E-03   -0.12845E-06   284   0.206E-02    0.925E-02
DAV: 324    -0.396869486298E+02    0.71546E-03   -0.14355E-05   228   0.112E-01    0.104E-01
DAV: 325    -0.396868333421E+02    0.11529E-03   -0.37629E-06   384   0.271E-02    0.112E-01
DAV: 326    -0.396868768301E+02   -0.43488E-04   -0.93785E-07   268   0.447E-03    0.113E-01
DAV: 327    -0.396868636851E+02    0.13145E-04   -0.16644E-08   192   0.248E-03    0.113E-01
DAV: 328    -0.396868895176E+02   -0.25832E-04   -0.17109E-08   170   0.357E-03    0.113E-01
DAV: 329    -0.396864567208E+02    0.43280E-03   -0.38827E-06   236   0.569E-02    0.122E-01
DAV: 330    -0.396862619736E+02    0.19475E-03   -0.18777E-06   316   0.265E-02    0.130E-01
DAV: 331    -0.396864428063E+02   -0.18083E-03   -0.79810E-07   252   0.211E-02    0.127E-01
DAV: 332    -0.396867657277E+02   -0.32292E-03   -0.22566E-06   236   0.423E-02    0.120E-01
DAV: 333    -0.396870112653E+02   -0.24554E-03   -0.25285E-06   308   0.361E-02    0.112E-01
DAV: 334    -0.396875423707E+02   -0.53111E-03   -0.79909E-06   236   0.850E-02    0.105E-01
DAV: 335    -0.396878235158E+02   -0.28115E-03   -0.70612E-06   348   0.567E-02    0.932E-02
DAV: 336    -0.396879607772E+02   -0.13726E-03   -0.19050E-06   348   0.334E-02    0.905E-02
DAV: 337    -0.396878841970E+02    0.76580E-04   -0.78987E-07   276   0.957E-03    0.905E-02
DAV: 338    -0.396881143313E+02   -0.23013E-03   -0.22819E-06   220   0.457E-02    0.905E-02
DAV: 339    -0.396883696798E+02   -0.25535E-03   -0.44870E-06   268   0.607E-02    0.896E-02
DAV: 340    -0.396883143952E+02    0.55285E-04   -0.18793E-06   268   0.126E-02    0.862E-02
DAV: 341    -0.396883892263E+02   -0.74831E-04   -0.44101E-07   280   0.202E-02    0.874E-02
DAV: 342    -0.396883779363E+02    0.11290E-04   -0.35086E-07   276   0.842E-03    0.855E-02
DAV: 343    -0.396882991328E+02    0.78803E-04   -0.41292E-07   276   0.122E-02    0.835E-02
DAV: 344    -0.396883134969E+02   -0.14364E-04   -0.45257E-08   204   0.165E-03    0.835E-02
DAV: 345    -0.396881994585E+02    0.11404E-03   -0.57155E-07   236   0.225E-02    0.808E-02
DAV: 346    -0.396881594154E+02    0.40043E-04   -0.42254E-07   300   0.159E-02    0.814E-02
DAV: 347    -0.396883943201E+02   -0.23490E-03   -0.26338E-06   228   0.420E-02    0.867E-02
DAV: 348    -0.396883962183E+02   -0.18983E-05   -0.61010E-07   276   0.132E-02    0.858E-02
DAV: 349    -0.396891706188E+02   -0.77440E-03   -0.24597E-05   236   0.155E-01    0.129E-01
DAV: 350    -0.396891803666E+02   -0.97479E-05   -0.22426E-05   268   0.727E-02    0.145E-01
DAV: 351    -0.396893342783E+02   -0.15391E-03   -0.12177E-05   276   0.732E-02    0.184E-01
DAV: 352    -0.396885997265E+02    0.73455E-03   -0.31813E-05   220   0.404E-02    0.185E-01
DAV: 353    -0.396886239228E+02   -0.24196E-04   -0.13057E-06   285   0.236E-02    0.200E-01
DAV: 354    -0.396891776871E+02   -0.55376E-03   -0.31015E-06   279   0.601E-02    0.254E-01
DAV: 355    -0.396888646125E+02    0.31307E-03   -0.28692E-05   260   0.688E-02    0.301E-01
DAV: 356    -0.396883095996E+02    0.55501E-03   -0.34960E-05   260   0.635E-02    0.345E-01
DAV: 357    -0.396873190848E+02    0.99051E-03   -0.38942E-05   244   0.457E-02    0.366E-01
DAV: 358    -0.396860912371E+02    0.12278E-02   -0.21505E-05   244   0.406E-02    0.340E-01
DAV: 359    -0.396880929098E+02   -0.20017E-02   -0.21422E-05   220   0.804E-02    0.423E-01
DAV: 360    -0.396870535998E+02    0.10393E-02   -0.66175E-05   236   0.680E-02    0.471E-01
DAV: 361    -0.396854390195E+02    0.16146E-02   -0.65035E-05   220   0.469E-02    0.474E-01
DAV: 362    -0.396853748238E+02    0.64196E-04   -0.37691E-06   328   0.193E-02    0.490E-01
DAV: 363    -0.396824977960E+02    0.28770E-02   -0.36911E-05   220   0.107E-01    0.373E-01
DAV: 364    -0.396807428354E+02    0.17550E-02   -0.81256E-05   220   0.281E-01    0.173E-01
DAV: 365    -0.396886515020E+02   -0.79087E-02   -0.12566E-03   236   0.270E-01    0.199E-01
DAV: 366    -0.396911513505E+02   -0.24998E-02   -0.46544E-05   296   0.182E-01    0.378E-01
DAV: 367    -0.396836004761E+02    0.75509E-02   -0.71053E-04   236   0.324E-01    0.180E-01
DAV: 368    -0.396883836965E+02   -0.47832E-02   -0.44718E-04   228   0.157E-01    0.209E-01
DAV: 369    -0.396892382270E+02   -0.85453E-03   -0.71463E-06   306   0.739E-02    0.276E-01
DAV: 370    -0.396868494989E+02    0.23887E-02   -0.87049E-05   244   0.103E-01    0.218E-01
DAV: 371    -0.396878568004E+02   -0.10073E-02   -0.25049E-05   220   0.309E-02    0.220E-01
DAV: 372    -0.396881736691E+02   -0.31687E-03   -0.17404E-06   271   0.177E-02    0.231E-01
DAV: 373    -0.396879131224E+02    0.26055E-03   -0.15004E-06   252   0.100E-02    0.227E-01
DAV: 374    -0.396864012847E+02    0.15118E-02   -0.19526E-05   228   0.121E-01    0.150E-01
DAV: 375    -0.396883702539E+02   -0.19690E-02   -0.10030E-04   236   0.742E-02    0.161E-01
DAV: 376    -0.396884846789E+02   -0.11442E-03   -0.18730E-06   349   0.108E-02    0.165E-01
DAV: 377    -0.396885691893E+02   -0.84510E-04   -0.18520E-07   296   0.101E-02    0.171E-01
DAV: 378    -0.396879943868E+02    0.57480E-03   -0.47323E-06   220   0.482E-02    0.145E-01
DAV: 379    -0.396879920842E+02    0.23026E-05   -0.43321E-06   244   0.496E-02    0.124E-01
DAV: 380    -0.396882666652E+02   -0.27458E-03   -0.85685E-06   276   0.363E-02    0.114E-01
DAV: 381    -0.396882127727E+02    0.53892E-04   -0.20228E-06   263   0.416E-02    0.101E-01
DAV: 382    -0.396882347145E+02   -0.21942E-04   -0.39075E-06   316   0.395E-02    0.951E-02
DAV: 383    -0.396882947275E+02   -0.60013E-04   -0.22661E-06   292   0.267E-02    0.898E-02
DAV: 384    -0.396879044020E+02    0.39033E-03   -0.60029E-06   252   0.835E-02    0.822E-02
DAV: 385    -0.396879358048E+02   -0.31403E-04   -0.51716E-06   284   0.433E-02    0.844E-02
DAV: 386    -0.396879036331E+02    0.32172E-04   -0.14402E-06   308   0.278E-02    0.860E-02
DAV: 387    -0.396879311272E+02   -0.27494E-04   -0.73663E-07   292   0.856E-03    0.858E-02
DAV: 388    -0.396877775812E+02    0.15355E-03   -0.99934E-07   252   0.312E-02    0.880E-02
DAV: 389    -0.396872456305E+02    0.53195E-03   -0.94975E-06   236   0.942E-02    0.973E-02
DAV: 390    -0.396869098944E+02    0.33574E-03   -0.89080E-06   364   0.614E-02    0.112E-01
DAV: 391    -0.396866684987E+02    0.24140E-03   -0.25958E-06   308   0.393E-02    0.120E-01
DAV: 392    -0.396867020399E+02   -0.33541E-04   -0.67576E-07   252   0.382E-03    0.120E-01
DAV: 393    -0.396867028022E+02   -0.76228E-06   -0.36719E-08   224   0.149E-03    0.121E-01
DAV: 394    -0.396869679760E+02   -0.26517E-03   -0.15537E-06   228   0.365E-02    0.116E-01
DAV: 395    -0.396871150266E+02   -0.14705E-03   -0.11654E-06   308   0.231E-02    0.110E-01
DAV: 396    -0.396871646538E+02   -0.49627E-04   -0.24950E-07   341   0.904E-03    0.108E-01
DAV: 397    -0.396869547155E+02    0.20994E-03   -0.11342E-06   228   0.298E-02    0.112E-01
DAV: 398    -0.396868112815E+02    0.14343E-03   -0.95366E-07   300   0.215E-02    0.117E-01
DAV: 399    -0.396872077353E+02   -0.39645E-03   -0.38949E-06   228   0.560E-02    0.110E-01
DAV: 400    -0.396875910361E+02   -0.38330E-03   -0.63895E-06   268   0.651E-02    0.990E-02
DAV: 401    -0.396880292734E+02   -0.43824E-03   -0.91023E-06   252   0.877E-02    0.909E-02
DAV: 402    -0.396881428922E+02   -0.11362E-03   -0.43748E-06   384   0.353E-02    0.833E-02
DAV: 403    -0.396882814785E+02   -0.13859E-03   -0.14937E-06   260   0.371E-02    0.816E-02
DAV: 404    -0.396885725434E+02   -0.29106E-03   -0.51774E-06   236   0.705E-02    0.890E-02
DAV: 405    -0.396885011935E+02    0.71350E-04   -0.41204E-06   284   0.200E-02    0.875E-02
DAV: 406    -0.396885822669E+02   -0.81073E-04   -0.65012E-07   328   0.246E-02    0.918E-02
DAV: 407    -0.396884581612E+02    0.12411E-03   -0.16755E-06   292   0.130E-02    0.876E-02
DAV: 408    -0.396882627119E+02    0.19545E-03   -0.14119E-06   236   0.351E-02    0.818E-02
DAV: 409    -0.396887383612E+02   -0.47565E-03   -0.91276E-06   220   0.752E-02    0.961E-02
DAV: 410    -0.396884945385E+02    0.24382E-03   -0.45802E-06   236   0.238E-02    0.916E-02
DAV: 411    -0.396885841529E+02   -0.89614E-04   -0.37531E-07   268   0.148E-02    0.944E-02
DAV: 412    -0.396884509150E+02    0.13324E-03   -0.74502E-07   236   0.165E-02    0.907E-02
DAV: 413    -0.396884472304E+02    0.36846E-05   -0.11835E-07   244   0.753E-03    0.896E-02
DAV: 414    -0.396880845047E+02    0.36273E-03   -0.45152E-06   236   0.666E-02    0.792E-02
DAV: 415    -0.396880215261E+02    0.62979E-04   -0.42144E-06   276   0.498E-02    0.783E-02
DAV: 416    -0.396880319734E+02   -0.10447E-04   -0.19709E-06   284   0.286E-02    0.779E-02
DAV: 417    -0.396878073436E+02    0.22463E-03   -0.23757E-06   268   0.527E-02    0.794E-02
DAV: 418    -0.396875562171E+02    0.25113E-03   -0.40658E-06   284   0.575E-02    0.861E-02
DAV: 419    -0.396873552034E+02    0.20101E-03   -0.29145E-06   300   0.445E-02    0.922E-02
DAV: 420    -0.396873621678E+02   -0.69644E-05   -0.10355E-06   308   0.962E-03    0.936E-02
DAV: 421    -0.396874089222E+02   -0.46754E-04   -0.24496E-07   260   0.586E-03    0.939E-02
DAV: 422    -0.396874434593E+02   -0.34537E-04   -0.39506E-08   212   0.560E-03    0.931E-02
DAV: 423    -0.396875880950E+02   -0.14464E-03   -0.70446E-07   244   0.247E-02    0.900E-02
DAV: 424    -0.396876249672E+02   -0.36872E-04   -0.32095E-07   298   0.919E-03    0.888E-02
DAV: 425    -0.396878859949E+02   -0.26103E-03   -0.25588E-06   236   0.494E-02    0.878E-02
DAV: 426    -0.396878650904E+02    0.20904E-04   -0.73918E-07   268   0.671E-03    0.861E-02
DAV: 427    -0.396878573756E+02    0.77148E-05   -0.78249E-08   228   0.203E-03    0.854E-02
DAV: 428    -0.396881910711E+02   -0.33370E-03   -0.49834E-06   236   0.669E-02    0.873E-02
DAV: 429    -0.396883297145E+02   -0.13864E-03   -0.30426E-06   346   0.400E-02    0.890E-02
DAV: 430    -0.396885161616E+02   -0.18645E-03   -0.22169E-06   263   0.496E-02    0.984E-02
DAV: 431    -0.396886886055E+02   -0.17244E-03   -0.39330E-06   327   0.504E-02    0.103E-01
DAV: 432    -0.396887960253E+02   -0.10742E-03   -0.24691E-06   252   0.447E-02    0.114E-01
DAV: 433    -0.396879669081E+02    0.82912E-03   -0.26933E-05   228   0.114E-01    0.842E-02
DAV: 434    -0.396882219994E+02   -0.25509E-03   -0.78308E-06   260   0.269E-02    0.813E-02
DAV: 435    -0.396883008357E+02   -0.78836E-04   -0.14094E-06   292   0.863E-03    0.817E-02
DAV: 436    -0.396885682758E+02   -0.26744E-03   -0.31993E-06   236   0.495E-02    0.917E-02
DAV: 437    -0.396884366816E+02    0.13159E-03   -0.18927E-06   252   0.131E-02    0.892E-02
DAV: 438    -0.396884366015E+02    0.80130E-07   -0.41239E-08   212   0.212E-03    0.898E-02
DAV: 439    -0.396886820753E+02   -0.24547E-03   -0.22347E-06   228   0.455E-02    0.993E-02
DAV: 440    -0.396885061554E+02    0.17592E-03   -0.26799E-06   252   0.162E-02    0.957E-02
DAV: 441    -0.396884452267E+02    0.60929E-04   -0.16528E-07   247   0.101E-02    0.928E-02
DAV: 442    -0.396885789009E+02   -0.13367E-03   -0.68725E-07   220   0.193E-02    0.968E-02
DAV: 443    -0.396885283793E+02    0.50522E-04   -0.29968E-07   236   0.382E-03    0.960E-02
DAV: 444    -0.396883552127E+02    0.17317E-03   -0.98731E-07   220   0.274E-02    0.904E-02
DAV: 445    -0.396883872714E+02   -0.32059E-04   -0.59368E-07   276   0.121E-02    0.901E-02
DAV: 446    -0.396884204193E+02   -0.33148E-04   -0.23040E-07   236   0.506E-03    0.896E-02
DAV: 447    -0.396878978718E+02    0.52255E-03   -0.99354E-06   236   0.949E-02    0.793E-02
DAV: 448    -0.396878804718E+02    0.17400E-04   -0.59347E-06   300   0.506E-02    0.844E-02
DAV: 449    -0.396881638201E+02   -0.28335E-03   -0.50354E-06   268   0.375E-02    0.847E-02
DAV: 450    -0.396879019641E+02    0.26186E-03   -0.28596E-06   228   0.479E-02    0.843E-02
DAV: 451    -0.396879652727E+02   -0.63309E-04   -0.74548E-07   220   0.562E-03    0.854E-02
DAV: 452    -0.396879280336E+02    0.37239E-04   -0.11295E-07   242   0.901E-03    0.862E-02
DAV: 453    -0.396879455835E+02   -0.17550E-04   -0.61500E-08   236   0.184E-03    0.869E-02
DAV: 454    -0.396881478082E+02   -0.20222E-03   -0.18044E-06   228   0.402E-02    0.901E-02
DAV: 455    -0.396881711012E+02   -0.23293E-04   -0.63485E-07   316   0.142E-02    0.895E-02
DAV: 456    -0.396882182396E+02   -0.47138E-04   -0.23516E-07   252   0.137E-02    0.867E-02
DAV: 457    -0.396882663364E+02   -0.48097E-04   -0.18956E-07   230   0.140E-02    0.873E-02
DAV: 458    -0.396883729475E+02   -0.10661E-03   -0.59214E-07   244   0.258E-02    0.889E-02
DAV: 459    -0.396880424620E+02    0.33049E-03   -0.48883E-06   228   0.563E-02    0.838E-02
DAV: 460    -0.396881372984E+02   -0.94836E-04   -0.94861E-07   244   0.714E-03    0.833E-02
DAV: 461    -0.396879950644E+02    0.14223E-03   -0.91208E-07   244   0.295E-02    0.824E-02
DAV: 462    -0.396880862755E+02   -0.91211E-04   -0.57576E-07   236   0.112E-02    0.833E-02
DAV: 463    -0.396880849917E+02    0.12838E-05   -0.27694E-08   234   0.872E-04    0.841E-02
DAV: 464    -0.396879234363E+02    0.16156E-03   -0.10967E-06   220   0.309E-02    0.861E-02
DAV: 465    -0.396879899472E+02   -0.66511E-04   -0.40309E-07   244   0.735E-03    0.860E-02
DAV: 466    -0.396878793755E+02    0.11057E-03   -0.52361E-07   236   0.219E-02    0.829E-02
DAV: 467    -0.396879317071E+02   -0.52332E-04   -0.22850E-07   252   0.630E-03    0.822E-02
DAV: 468    -0.396875925022E+02    0.33920E-03   -0.42159E-06   220   0.607E-02    0.891E-02
DAV: 469    -0.396877992580E+02   -0.20676E-03   -0.19809E-06   228   0.280E-02    0.849E-02
DAV: 470    -0.396878513165E+02   -0.52058E-04   -0.16601E-07   252   0.109E-02    0.823E-02
DAV: 471    -0.396879187966E+02   -0.67480E-04   -0.20631E-07   244   0.145E-02    0.809E-02
DAV: 472    -0.396881515024E+02   -0.23271E-03   -0.24880E-06   236   0.489E-02    0.793E-02
DAV: 473    -0.396882604997E+02   -0.10900E-03   -0.20709E-06   328   0.314E-02    0.770E-02
DAV: 474    -0.396884031136E+02   -0.14261E-03   -0.14499E-06   300   0.378E-02    0.781E-02
DAV: 475    -0.396884923121E+02   -0.89198E-04   -0.15179E-06   316   0.307E-02    0.799E-02
DAV: 476    -0.396883417722E+02    0.15054E-03   -0.20839E-06   276   0.191E-02    0.788E-02
DAV: 477    -0.396883763825E+02   -0.34610E-04   -0.88928E-08   228   0.523E-03    0.795E-02
DAV: 478    -0.396881743199E+02    0.20206E-03   -0.16514E-06   220   0.374E-02    0.766E-02
DAV: 479    -0.396884570657E+02   -0.28275E-03   -0.37083E-06   220   0.450E-02    0.808E-02
DAV: 480    -0.396883844191E+02    0.72647E-04   -0.60476E-07   228   0.624E-03    0.803E-02
DAV: 481    -0.396883922325E+02   -0.78134E-05   -0.15581E-08   172   0.360E-03    0.811E-02
DAV: 482    -0.396883991372E+02   -0.69046E-05   -0.11149E-08   146   0.319E-03    0.814E-02
DAV: 483    -0.396884015708E+02   -0.24337E-05   -0.10078E-08   146   0.254E-03    0.819E-02
DAV: 484    -0.396888785388E+02   -0.47697E-03   -0.92278E-06   228   0.902E-02    0.976E-02
DAV: 485    -0.396885765677E+02    0.30197E-03   -0.10147E-05   252   0.274E-02    0.949E-02
DAV: 486    -0.396886301519E+02   -0.53584E-04   -0.38593E-07   324   0.138E-02    0.101E-01
DAV: 487    -0.396886841428E+02   -0.53991E-04   -0.34304E-07   260   0.166E-02    0.106E-01
DAV: 488    -0.396886338867E+02    0.50256E-04   -0.63270E-07   284   0.913E-03    0.108E-01
DAV: 489    -0.396880801315E+02    0.55376E-03   -0.83253E-06   220   0.751E-02    0.947E-02
DAV: 490    -0.396881682761E+02   -0.88145E-04   -0.54297E-06   284   0.429E-02    0.107E-01
DAV: 491    -0.396877459642E+02    0.42231E-03   -0.78825E-06   236   0.984E-02    0.106E-01
DAV: 492    -0.396881877850E+02   -0.44182E-03   -0.12904E-05   260   0.433E-02    0.104E-01
DAV: 493    -0.396878765398E+02    0.31125E-03   -0.42676E-06   236   0.600E-02    0.965E-02
DAV: 494    -0.396882942334E+02   -0.41769E-03   -0.81640E-06   220   0.673E-02    0.798E-02
DAV: 495    -0.396884798994E+02   -0.18567E-03   -0.27290E-06   287   0.482E-02    0.802E-02
DAV: 496    -0.396883976364E+02    0.82263E-04   -0.17476E-06   244   0.105E-02    0.797E-02
DAV: 497    -0.396883641797E+02    0.33457E-04   -0.19213E-07   268   0.327E-03    0.789E-02
DAV: 498    -0.396884560962E+02   -0.91917E-04   -0.38460E-07   220   0.179E-02    0.795E-02
DAV: 499    -0.396882450790E+02    0.21102E-03   -0.19137E-06   220   0.347E-02    0.777E-02
DAV: 500    -0.396884812898E+02   -0.23621E-03   -0.24878E-06   220   0.371E-02
   1 F= -.39688481E+02 E0= -.39667974E+02  d E =-.410143E-01  mag=     5.0000
