 vasp.6.4.2 20Jul23 (build Feb  3 2025 11:36:47) gamma-only                      
 executed on    LinuxNV_CrayMPICH date 2025.03.13  16:26:57
 running    1 mpi-ranks, with    1 threads/rank, on    1 nodes
 distrk:  each k-point on    1 cores,    1 groups
 distr:  one band on NCORE=   1 cores,    1 groups
 OpenACC runtime initialized ...    1 GPUs detected


--------------------------------------------------------------------------------------------------------


 INCAR:
   SYSTEM = vasp
   PREC = Accurate
   ENCUT = 400
   LREAL = F
   GGA = PE
   NCORE = 16
   EDIFF = 1E-8
   NELM = 500
   NELMDL = -8
   AMIX = 0.35
   AMIX_MAG = 0.7
   AMIX_MIN = 0.05
   LASPH = T
   GGA_COMPAT = F
   ISPIN = 2
   MAGMOM = 5.0 1000*0.0
   NUPDOWN = 5
   ISTART = 0
   ICHARG = 2
   LWAVE = T
   LCHARG = T
   LAECHG = T
   LMAXMIX = 6
   ISMEAR = 0
   SIGMA = 0.05
   LORBIT = 10

 POTCAR:    PAW_PBE Dy 25May2022                  
 POTCAR:    PAW_PBE Cs_sv 25Jan2019               
 POTCAR:    PAW_PBE Na 08Apr2002                  
 POTCAR:    PAW_PBE Cl 06Sep2000                  
 POTCAR:    PAW_PBE Dy 25May2022                  
   SHA256 =  5bbe971b9580ecb785083d9aa36064d566decfc0d4014a5245c7bef13e8ceb48 Dy/POTCAR             
   COPYR  = (c) Copyright 25May2022 Georg Kresse                                                    
   COPYR  = This file is part of the software VASP. Any use, copying, and all other rights are regul
   COPYR  = If you do not have a valid VASP license, you may not use, copy or distribute this file. 
   VRHFIN =Dy : [core=Xe4]                                                                          
   LEXCH  = PE                                                                                      
   EATOM  =  4072.8507 eV,  299.3461 Ry                                                             
                                                                                                    
   TITEL  = PAW_PBE Dy 25May2022                                                                    
   LULTRA =        F    use ultrasoft PP ?                                                          
   IUNSCR =        1    unscreen: 0-lin 1-nonlin 2-no                                               
   RPACOR =    1.800    partial core radius                                                         
   POMASS =  162.500; ZVAL   =   20.000    mass and valenz                                          
   RCORE  =    2.500    outmost cutoff radius                                                       
   RWIGS  =    2.800; RWIGS  =    1.482    wigner-seitz radius (au A)                               
   ENMAX  =  341.547; ENMIN  =  256.160 eV                                                          
   RCLOC  =    2.304    cutoff for local pot                                                        
   LCOR   =        T    correct aug charges                                                         
   LPAW   =        T    paw PP                                                                      
   EAUG   =  678.956                                                                                
   DEXC   =   -0.000                                                                                
   RMAX   =    2.562    core radius for proj-oper                                                   
   RAUG   =    1.300    factor for augmentation sphere                                              
   RDEP   =    2.598    radius for radial grids                                                     
   RDEPT  =    1.998    core radius for aug-charge                                                  
                                                                                                    
   Atomic configuration                                                                             
   14 entries                                                                                       
     n  l   j            E        occ.                                                              
     1  0  0.50    -53646.1234   2.0000                                                             
     2  0  0.50     -8935.1746   2.0000                                                             
     2  1  1.50     -7926.8256   6.0000                                                             
     3  0  0.50     -1991.8980   2.0000                                                             
     3  1  1.50     -1682.5205   6.0000                                                             
     3  2  2.50     -1285.2501  10.0000                                                             
     4  0  0.50      -396.8491   2.0000                                                             
     4  1  1.50      -294.9810   6.0000                                                             
     4  2  2.50      -156.3760  10.0000                                                             
     5  2  2.50        -1.7621   0.5000                                                             
     4  3  2.50        -6.0806   9.5000                                                             
     5  0  0.50       -50.8915   2.0000                                                             
     6  0  0.50        -4.0469   2.0000                                                             
     5  1  1.50       -26.9665   6.0000                                                             
   Description                                                                                      
     l       E           TYP  RCUT    TYP  RCUT                                                     
     2     -1.7620628     23  2.300                                                                 
     2     20.4087390     23  2.300                                                                 
     3     -6.0805505     23  2.400                                                                 
     3     -7.4411331     23  2.400                                                                 
     3     -0.6802913     23  2.400                                                                 
     0    -50.8915360     23  2.400                                                                 
     0     -4.0469085     23  2.500                                                                 
     1    -26.9665271     23  2.000                                                                 
     1    -28.3271097     23  2.000                                                                 
  local pseudopotential read in
  partial core-charges read in
  partial kinetic energy density read in
  kinetic energy density of atom read in
  atomic valenz-charges read in
  non local Contribution for L=            2  read in
    real space projection operators read in
  non local Contribution for L=            2  read in
    real space projection operators read in
  non local Contribution for L=            3  read in
    real space projection operators read in
  non local Contribution for L=            3  read in
    real space projection operators read in
  non local Contribution for L=            3  read in
    real space projection operators read in
  non local Contribution for L=            0  read in
    real space projection operators read in
  non local Contribution for L=            0  read in
    real space projection operators read in
  non local Contribution for L=            1  read in
    real space projection operators read in
  non local Contribution for L=            1  read in
    real space projection operators read in
    PAW grid and wavefunctions read in
 
   number of l-projection  operators is LMAX  =            9
   number of lm-projection operators is LMMAX =           39
 
 POTCAR:    PAW_PBE Cs_sv 25Jan2019               
   SHA256 =  0e16bce67778f8d3e6a1e8d49098acae95c0f8d441dd09aee70633bcf454619d Cs_sv/POTCAR          
   COPYR  = (c) Copyright 25Jan2019 Georg Kresse                                                    
   COPYR  = This file is part of the software VASP. Any use, copying, and all other rights are regul
   COPYR  = If you do not have a valid VASP license, you may not use, copy or distribute this file. 
   VRHFIN =Cs: 5s5p6s                                                                               
   LEXCH  = PE                                                                                      
   EATOM  =   555.6835 eV,   40.8416 Ry                                                             
                                                                                                    
   TITEL  = PAW_PBE Cs_sv 25Jan2019                                                                 
   LULTRA =        F    use ultrasoft PP ?                                                          
   IUNSCR =        1    unscreen: 0-lin 1-nonlin 2-no                                               
   RPACOR =    1.800    partial core radius                                                         
   POMASS =  132.900; ZVAL   =    9.000    mass and valenz                                          
   RCORE  =    2.500    outmost cutoff radius                                                       
   RWIGS  =    2.500; RWIGS  =    1.323    wigner-seitz radius (au A)                               
   ENMAX  =  220.318; ENMIN  =  165.238 eV                                                          
   RCLOC  =    2.207    cutoff for local pot                                                        
   LCOR   =        T    correct aug charges                                                         
   LPAW   =        T    paw PP                                                                      
   EAUG   =  407.933                                                                                
   DEXC   =   -0.000                                                                                
   RMAX   =    2.554    core radius for proj-oper                                                   
   RAUG   =    1.300    factor for augmentation sphere                                              
   RDEP   =    2.590    radius for radial grids                                                     
   RDEPT  =    2.067    core radius for aug-charge                                                  
                                                                                                    
   Atomic configuration                                                                             
   13 entries                                                                                       
     n  l   j            E        occ.                                                              
     1  0  0.50    -35790.1377   2.0000                                                             
     2  0  0.50     -5613.6201   2.0000                                                             
     2  1  1.50     -5035.0101   6.0000                                                             
     3  0  0.50     -1167.0767   2.0000                                                             
     3  1  1.50      -980.9754   6.0000                                                             
     3  2  2.50      -708.0703  10.0000                                                             
     4  0  0.50      -220.2386   2.0000                                                             
     4  1  1.50      -160.7596   6.0000                                                             
     4  2  2.50       -74.2354  10.0000                                                             
     5  0  0.50       -26.7287   2.0000                                                             
     6  0  0.50        -2.0862   1.0000                                                             
     5  1  1.50       -13.5159   6.0000                                                             
     5  2  2.50        -0.4136   0.0000                                                             
   Description                                                                                      
     l       E           TYP  RCUT    TYP  RCUT                                                     
     0    -26.7287425     23  1.900                                                                 
     0     -2.0862306     23  1.900                                                                 
     1    -13.5158719     23  2.300                                                                 
     1     -2.7211652     23  2.300                                                                 
     2     -0.4136171     23  2.500                                                                 
  local pseudopotential read in
  partial core-charges read in
  partial kinetic energy density read in
  kinetic energy density of atom read in
  atomic valenz-charges read in
  non local Contribution for L=            0  read in
    real space projection operators read in
  non local Contribution for L=            0  read in
    real space projection operators read in
  non local Contribution for L=            1  read in
    real space projection operators read in
  non local Contribution for L=            1  read in
    real space projection operators read in
  non local Contribution for L=            2  read in
    real space projection operators read in
    PAW grid and wavefunctions read in
 
   number of l-projection  operators is LMAX  =            5
   number of lm-projection operators is LMMAX =           13
 
 POTCAR:    PAW_PBE Na 08Apr2002                  
   SHA256 =  28de979e29d3a0ce6b912090ec41d2d3fb15239b988ee49a7215736a384d2747 Na/POTCAR             
   COPYR  = (c) Copyright 08Apr2002 Georg Kresse                                                    
   COPYR  = This file is part of the software VASP. Any use, copying, and all other rights are regul
   COPYR  = If you do not have a valid VASP license, you may not use, copy or distribute this file. 
   VRHFIN =Na: s1p0                                                                                 
   LEXCH  = PE                                                                                      
   EATOM  =     5.1581 eV,    0.3791 Ry                                                             
                                                                                                    
   TITEL  = PAW_PBE Na 08Apr2002                                                                    
   LULTRA =        F    use ultrasoft PP ?                                                          
   IUNSCR =        1    unscreen: 0-lin 1-nonlin 2-no                                               
   RPACOR =    1.800    partial core radius                                                         
   POMASS =   22.990; ZVAL   =    1.000    mass and valenz                                          
   RCORE  =    2.200    outmost cutoff radius                                                       
   RWIGS  =    3.320; RWIGS  =    1.757    wigner-seitz radius (au A)                               
   ENMAX  =  101.968; ENMIN  =   76.476 eV                                                          
   ICORE  =        2    local potential                                                             
   LCOR   =        T    correct aug charges                                                         
   LPAW   =        T    paw PP                                                                      
   EAUG   =  250.695                                                                                
   DEXC   =    0.000                                                                                
   RMAX   =    2.245    core radius for proj-oper                                                   
   RAUG   =    1.300    factor for augmentation sphere                                              
   RDEP   =    2.259    radius for radial grids                                                     
   RDEPT  =    2.115    core radius for aug-charge                                                  
                                                                                                    
   Atomic configuration                                                                             
    6 entries                                                                                       
     n  l   j            E        occ.                                                              
     1  0  0.50     -1033.6933   2.0000                                                             
     2  0  0.50       -56.7526   2.0000                                                             
     2  1  1.50       -28.6721   6.0000                                                             
     3  0  0.50        -2.7440   1.0000                                                             
     3  1  0.50        -1.3606   0.0000                                                             
     3  2  1.50        -1.3606   0.0000                                                             
   Description                                                                                      
     l       E           TYP  RCUT    TYP  RCUT                                                     
     0     -2.7439560     23  2.200                                                                 
     0     27.2116520     23  2.200                                                                 
     1     -1.3605826     23  2.200                                                                 
     2     -1.3605826     23  2.200                                                                 
  local pseudopotential read in
  partial core-charges read in
  partial kinetic energy density read in
  atomic valenz-charges read in
  non local Contribution for L=            0  read in
    real space projection operators read in
  non local Contribution for L=            0  read in
    real space projection operators read in
  non local Contribution for L=            1  read in
    real space projection operators read in
    PAW grid and wavefunctions read in
 
   number of l-projection  operators is LMAX  =            3
   number of lm-projection operators is LMMAX =            5
 
 POTCAR:    PAW_PBE Cl 06Sep2000                  
   SHA256 =  9f1b6e6ed4247ac726a768b330d26d7667cc3c95a39ff49c1d064c2d9dcce931 Cl/POTCAR             
   COPYR  = (c) Copyright 06Sep2000 Georg Kresse                                                    
   COPYR  = This file is part of the software VASP. Any use, copying, and all other rights are regul
   COPYR  = If you do not have a valid VASP license, you may not use, copy or distribute this file. 
   VRHFIN =Cl: s2p5                                                                                 
   LEXCH  = PE                                                                                      
   EATOM  =   409.7259 eV,   30.1140 Ry                                                             
                                                                                                    
   TITEL  = PAW_PBE Cl 06Sep2000                                                                    
   LULTRA =        F    use ultrasoft PP ?                                                          
   IUNSCR =        1    unscreen: 0-lin 1-nonlin 2-no                                               
   RPACOR =    1.500    partial core radius                                                         
   POMASS =   35.453; ZVAL   =    7.000    mass and valenz                                          
   RCORE  =    1.900    outmost cutoff radius                                                       
   RWIGS  =    2.100; RWIGS  =    1.111    wigner-seitz radius (au A)                               
   ENMAX  =  262.472; ENMIN  =  196.854 eV                                                          
   ICORE  =        2    local potential                                                             
   LCOR   =        T    correct aug charges                                                         
   LPAW   =        T    paw PP                                                                      
   EAUG   =  356.192                                                                                
   DEXC   =    0.000                                                                                
   RMAX   =    1.945    core radius for proj-oper                                                   
   RAUG   =    1.300    factor for augmentation sphere                                              
   RDEP   =    2.020    radius for radial grids                                                     
   RDEPT  =    1.678    core radius for aug-charge                                                  
                                                                                                    
   Atomic configuration                                                                             
    6 entries                                                                                       
     n  l   j            E        occ.                                                              
     1  0  0.50     -2751.1850   2.0000                                                             
     2  0  0.50      -252.6861   2.0000                                                             
     2  1  1.50      -191.6157   6.0000                                                             
     3  0  0.50       -20.6916   2.0000                                                             
     3  1  0.50        -8.5949   5.0000                                                             
     3  2  1.50        -8.1635   0.0000                                                             
   Description                                                                                      
     l       E           TYP  RCUT    TYP  RCUT                                                     
     0    -20.6915656     23  1.900                                                                 
     0    -22.0521482     23  1.900                                                                 
     1     -8.5948577     23  1.900                                                                 
     1     -5.3847331     23  1.900                                                                 
     2     -8.1634956     23  1.900                                                                 
  local pseudopotential read in
  partial core-charges read in
  partial kinetic energy density read in
  atomic valenz-charges read in
  non local Contribution for L=            0  read in
    real space projection operators read in
  non local Contribution for L=            0  read in
    real space projection operators read in
  non local Contribution for L=            1  read in
    real space projection operators read in
  non local Contribution for L=            1  read in
    real space projection operators read in
    PAW grid and wavefunctions read in
 
   number of l-projection  operators is LMAX  =            4
   number of lm-projection operators is LMMAX =            8
 
  PAW_PBE Dy 25May2022                  :
 energy of atom  1       EATOM=-4072.8507
 kinetic energy error for atom=    0.0205 (will be added to EATOM!!)
  PAW_PBE Cs_sv 25Jan2019               :
 energy of atom  2       EATOM= -555.6835
 kinetic energy error for atom=    0.0044 (will be added to EATOM!!)
  PAW_PBE Na 08Apr2002                  :
 energy of atom  3       EATOM=   -5.1581
 kinetic energy error for atom=    0.0001 (will be added to EATOM!!)
  PAW_PBE Cl 06Sep2000                  :
 energy of atom  4       EATOM= -409.7259
 kinetic energy error for atom=    0.0089 (will be added to EATOM!!)
 
 
 POSCAR: DyCl6
  positions in direct lattice
  velocities in cartesian coordinates
  No initial velocities read in
 exchange correlation table for  LEXCH =        8
   RHO(1)=    0.500       N(1)  =     2000
   RHO(2)=  100.500       N(2)  =     4000

 VTST: version 4.1, (05/19/21)

 CHAIN: initializing optimizer
 
 OPT: Using VASP Dynamics algorithm
 CHAIN: Read ICHAIN             0
 
 POSCAR: DyCl6
  positions in direct lattice
  velocities in cartesian coordinates
  No initial velocities read in
 


--------------------------------------------------------------------------------------------------------


 ion  position               nearest neighbor table
   1  0.500  0.500  0.500-   5 2.72   6 2.72   7 2.72   8 2.72   9 2.72  10 2.72
   2  0.250  0.250  0.250-
   3  0.750  0.750  0.750-
   4  0.000  0.000  0.000-   5 2.65   6 2.65   7 2.65   8 2.65   9 2.65  10 2.65
   5  0.246  0.754  0.754-   4 2.65   1 2.72
   6  0.754  0.246  0.246-   4 2.65   1 2.72
   7  0.754  0.246  0.754-   4 2.65   1 2.72
   8  0.246  0.754  0.246-   4 2.65   1 2.72
   9  0.754  0.754  0.246-   4 2.65   1 2.72
  10  0.246  0.246  0.754-   4 2.65   1 2.72
 
  LATTYP: Found a face centered cubic cell.
 ALAT       =    10.7430000000
  
  Lattice vectors:
  
 A1 = (   0.0000000000,   5.3715000000,   5.3715000000)
 A2 = (   5.3715000000,   0.0000000000,   5.3715000000)
 A3 = (   5.3715000000,   5.3715000000,   0.0000000000)


Analysis of symmetry for initial positions (statically):
=====================================================================
 Subroutine PRICEL returns:
 Original cell was already a primitive cell.
 

 Routine SETGRP: Setting up the symmetry group for a 
 face centered cubic supercell.


 Subroutine GETGRP returns: Found 48 space group operations
 (whereof 48 operations were pure point group operations)
 out of a pool of 48 trial point group operations.


The static configuration has the point symmetry O_h .


Analysis of symmetry for dynamics (positions and initial velocities):
=====================================================================
 Subroutine PRICEL returns:
 Original cell was already a primitive cell.
 

 Routine SETGRP: Setting up the symmetry group for a 
 face centered cubic supercell.


 Subroutine GETGRP returns: Found 48 space group operations
 (whereof 48 operations were pure point group operations)
 out of a pool of 48 trial point group operations.


The dynamic configuration has the point symmetry O_h .


Analysis of structural, dynamic, and magnetic symmetry:
=====================================================================
 Subroutine PRICEL returns:
 Original cell was already a primitive cell.
 

 Routine SETGRP: Setting up the symmetry group for a 
 face centered cubic supercell.


 Subroutine GETGRP returns: Found 48 space group operations
 (whereof 48 operations were pure point group operations)
 out of a pool of 48 trial point group operations.


The overall configuration has the point symmetry O_h .


 Subroutine INISYM returns: Found 48 space group operations
 (whereof 48 operations are pure point group operations),
 and found     1 'primitive' translations


----------------------------------------------------------------------------------------

                                     Primitive cell                                     

  volume of cell :     309.9679

  direct lattice vectors                    reciprocal lattice vectors
     0.000000000  5.371500000  5.371500000    -0.093083869  0.093083869  0.093083869
     5.371500000  0.000000000  5.371500000     0.093083869 -0.093083869  0.093083869
     5.371500000  5.371500000  0.000000000     0.093083869  0.093083869 -0.093083869

  length of vectors
     7.596448150  7.596448150  7.596448150     0.161225990  0.161225990  0.161225990

  position of ions in fractional coordinates (direct lattice)
     0.500000000  0.500000000  0.500000000
     0.250000000  0.250000000  0.250000000
     0.750000000  0.750000000  0.750000000
     0.000000000  0.000000000  0.000000000
     0.246439542  0.753560458  0.753560458
     0.753560458  0.246439542  0.246439542
     0.753560458  0.246439542  0.753560458
     0.246439542  0.753560458  0.246439542
     0.753560458  0.753560458  0.246439542
     0.246439542  0.246439542  0.753560458

  ion indices of the primitive-cell ions
   primitive index   ion index
                 1           1
                 2           2
                 3           3
                 4           4
                 5           5
                 6           6
                 7           7
                 8           8
                 9           9
                10          10

----------------------------------------------------------------------------------------

 
 
 KPOINTS: kpoints                                 

Automatic generation of k-mesh.
 Grid dimensions read from file:
 generate k-points for:    1    1    1

 Generating k-lattice:

  Cartesian coordinates                     Fractional coordinates (reciprocal lattice)
    -0.093083869  0.093083869  0.093083869     1.000000000  0.000000000  0.000000000
     0.093083869 -0.093083869  0.093083869     0.000000000  1.000000000 -0.000000000
     0.093083869  0.093083869 -0.093083869    -0.000000000 -0.000000000  1.000000000

  Length of vectors
     0.161225990  0.161225990  0.161225990

  Shift w.r.t. Gamma in fractional coordinates (k-lattice)
     0.000000000  0.000000000  0.000000000

 
 Subroutine IBZKPT returns following result:
 ===========================================
 
 Found      1 irreducible k-points:
 
 Following reciprocal coordinates:
            Coordinates               Weight
  0.000000  0.000000  0.000000      1.000000
 
 Following cartesian coordinates:
            Coordinates               Weight
  0.000000  0.000000  0.000000      1.000000
 


--------------------------------------------------------------------------------------------------------




 Dimension of arrays:
   k-points           NKPTS =      1   k-points in BZ     NKDIM =      1   number of bands    NBANDS=     51
   number of dos      NEDOS =    301   number of ions     NIONS =     10
   non local maximal  LDIM  =      9   non local SUM 2l+1 LMDIM =     39
   total plane-waves  NPLWV = 125000
   max r-space proj   IRMAX =      1   max aug-charges    IRDMAX=  20359
   dimension x,y,z NGX =    50 NGY =   50 NGZ =   50
   dimension x,y,z NGXF=   100 NGYF=  100 NGZF=  100
   support grid    NGXF=   100 NGYF=  100 NGZF=  100
   ions per type =               1   2   1   6
   NGX,Y,Z   is equivalent  to a cutoff of  10.94, 10.94, 10.94 a.u.
   NGXF,Y,Z  is equivalent  to a cutoff of  21.88, 21.88, 21.88 a.u.

 SYSTEM =  vasp                                    
 POSCAR =  DyCl6                                   

 Startparameter for this run:
   NWRITE =      2    write-flag & timer
   PREC   = accura    normal or accurate (medium, high low for compatibility)
   ISTART =      0    job   : 0-new  1-cont  2-samecut
   ICHARG =      2    charge: 1-file 2-atom 10-const
   ISPIN  =      2    spin polarized calculation?
   LNONCOLLINEAR =      F non collinear calculations
   LSORBIT =      F    spin-orbit coupling
   INIWAV =      1    electr: 0-lowe 1-rand  2-diag
   LASPH  =      T    aspherical Exc in radial PAW
 Electronic Relaxation 1
   ENCUT  =  400.0 eV  29.40 Ry    5.42 a.u.  12.39 12.39 12.39*2*pi/ulx,y,z
   ENINI  =  400.0     initial cutoff
   ENAUG  =  679.0 eV  augmentation charge cutoff
   NELM   =    500;   NELMIN=  2; NELMDL= -8     # of ELM steps 
   EDIFF  = 0.1E-07   stopping-criterion for ELM
   LREAL  =      F    real-space projection
   NLSPLINE    = F    spline interpolate recip. space projectors
   LCOMPAT=      F    compatible to vasp.4.4
   GGA_COMPAT  = F    GGA compatible to vasp.4.4-vasp.4.6
   LMAXPAW     = -100 max onsite density
   LMAXMIX     =    6 max onsite mixed and CHGCAR
   VOSKOWN=      0    Vosko Wilk Nusair interpolation
   ROPT   =    0.00000   0.00000   0.00000   0.00000
 Ionic relaxation
   EDIFFG = 0.1E-06   stopping-criterion for IOM
   NSW    =      0    number of steps for IOM
   NBLOCK =      1;   KBLOCK =      1    inner block; outer block 
   IBRION =     -1    ionic relax: 0-MD 1-quasi-New 2-CG
   NFREE  =      0    steps in history (QN), initial steepest desc. (CG)
   ISIF   =      2    stress and relaxation
   IWAVPR =     10    prediction:  0-non 1-charg 2-wave 3-comb
   ISYM   =      2    0-nonsym 1-usesym 2-fastsym
   LCORR  =      T    Harris-Foulkes like correction to forces

   POTIM  = 0.5000    time-step for ionic-motion
   TEIN   =    0.0    initial temperature
   TEBEG  =    0.0;   TEEND  =   0.0 temperature during run
   SMASS  =  -3.00    Nose mass-parameter (am)
   estimated Nose-frequenzy (Omega)   =  0.10E-29 period in steps = 0.13E+47 mass=  -0.132E-26a.u.
   SCALEE = 1.0000    scale energy and forces
   NPACO  =    256;   APACO  = 10.0  distance and # of slots for P.C.
   PSTRESS=    0.0 pullay stress

  Mass of Ions in am
   POMASS = 162.50132.90 22.99 35.45
  Ionic Valenz
   ZVAL   =  20.00  9.00  1.00  7.00
  Atomic Wigner-Seitz radii
   RWIGS  =  -1.00 -1.00 -1.00 -1.00
  virtual crystal weights 
   VCA    =   1.00  1.00  1.00  1.00
   NELECT =      81.0000    total number of electrons
   NUPDOWN=       5.0000    fix difference up-down

 DOS related values:
   EMIN   =  10.00;   EMAX   =-10.00  energy-range for DOS
   EFERMI =   0.00;   METHOD = LEGACY      
   ISMEAR =     0;   SIGMA  =   0.05  broadening in eV -4-tet -1-fermi 0-gaus

 Electronic relaxation 2 (details)
   IALGO  =     38    algorithm
   LDIAG  =      T    sub-space diagonalisation (order eigenvalues)
   LSUBROT=      F    optimize rotation matrix (better conditioning)
   TURBO    =      0    0=normal 1=particle mesh
   IRESTART =      0    0=no restart 2=restart with 2 vectors
   NREBOOT  =      0    no. of reboots
   NMIN     =      0    reboot dimension
   EREF     =   0.00    reference energy to select bands
   IMIX   =      4    mixing-type and parameters
     AMIX     =   0.35;   BMIX     =  1.00
     AMIX_MAG =   0.70;   BMIX_MAG =  1.00
     AMIN     =   0.10
     WC   =   100.;   INIMIX=   1;  MIXPRE=   1;  MAXMIX= -45

 Intra band minimization:
   WEIMIN = 0.0000     energy-eigenvalue tresh-hold
   EBREAK =  0.49E-10  absolut break condition
   DEPER  =   0.30     relativ break condition  

   TIME   =   0.40     timestep for ELM

  volume/ion in A,a.u.               =      31.00       209.18
  Fermi-wavevector in a.u.,A,eV,Ry     =   1.046641  1.977864 14.904592  1.095457
  Thomas-Fermi vector in A             =   2.181487
 
 Write flags
   LWAVE        =      T    write WAVECAR
   LDOWNSAMPLE  =      F    k-point downsampling of WAVECAR
   LCHARG       =      T    write CHGCAR
   LVTOT        =      F    write LOCPOT, total local potential
   LVHAR        =      F    write LOCPOT, Hartree potential only
   LELF         =      F    write electronic localiz. function (ELF)
   LORBIT       =     10    0 simple, 1 ext, 2 COOP (PROOUT), +10 PAW based schemes


 Dipole corrections
   LMONO  =      F    monopole corrections only (constant potential shift)
   LDIPOL =      F    correct potential (dipole corrections)
   IDIPOL =      0    1-x, 2-y, 3-z, 4-all directions 
   EPSILON=  1.0000000 bulk dielectric constant

 Exchange correlation treatment:
   GGA     =    PE    GGA type
   LEXCH   =     8    internal setting for exchange type
   LIBXC   =     F    Libxc                    
   VOSKOWN =     0    Vosko Wilk Nusair interpolation
   LHFCALC =     F    Hartree Fock is set to
   LHFONE  =     F    Hartree Fock one center treatment
   AEXX    =    0.0000 exact exchange contribution

 Linear response parameters
   LEPSILON=     F    determine dielectric tensor
   LRPA    =     F    only Hartree local field effects (RPA)
   LNABLA  =     F    use nabla operator in PAW spheres
   LVEL    =     F    velocity operator in full k-point grid
   CSHIFT  =0.1000    complex shift for real part using Kramers Kronig
   OMEGAMAX=  -1.0    maximum frequency
   DEG_THRESHOLD= 0.2000000E-02 threshold for treating states as degnerate
   RTIME   =   -0.100 relaxation time in fs
  (WPLASMAI=    0.000 imaginary part of plasma frequency in eV, 0.658/RTIME)
   DFIELD  = 0.0000000 0.0000000 0.0000000 field for delta impulse in time
 
  Optional k-point grid parameters
   LKPOINTS_OPT  =     F    use optional k-point grid
   KPOINTS_OPT_MODE=     1    mode for optional k-point grid
 
 Orbital magnetization related:
   ORBITALMAG=     F  switch on orbital magnetization
   LCHIMAG   =     F  perturbation theory with respect to B field
   DQ        =  0.001000  dq finite difference perturbation B field
   LLRAUG    =     F  two centre corrections for induced B field
   LBONE     =     F  B-component reconstruction in AE one-centre
   LVGVCALC  =     T  calculate vGv susceptibility
   LVGVAPPL  =     F  apply vGv susceptibility instead of pGv for G=0

 Random number generation:
   RANDOM_GENERATOR = DEFAULT
   PCG_SEED         = not used


--------------------------------------------------------------------------------------------------------


 Static calculation
 charge density and potential will be updated during run
 spin polarized calculation
 Variant of blocked Davidson
 Davidson routine will perform the subspace rotation
 perform sub-space diagonalisation
    after iterative eigenvector-optimisation
 modified Broyden-mixing scheme, WC =      100.0
 initial mixing is a Kerker type mixing with AMIX =  0.3500 and BMIX =      1.0000
 Hartree-type preconditioning will be used
 using additional bands            10
 reciprocal scheme for non local part
 use partial core corrections
 calculate Harris-corrections to forces 
   (improved forces if not selfconsistent)
 use gradient corrections 
 use of overlap-Matrix (Vanderbilt PP)
 Gauss-broadening in eV      SIGMA  =   0.05


--------------------------------------------------------------------------------------------------------


  energy-cutoff  :      400.00
  volume of cell :      309.97
      direct lattice vectors                 reciprocal lattice vectors
     0.000000000  5.371500000  5.371500000    -0.093083869  0.093083869  0.093083869
     5.371500000  0.000000000  5.371500000     0.093083869 -0.093083869  0.093083869
     5.371500000  5.371500000  0.000000000     0.093083869  0.093083869 -0.093083869

  length of vectors
     7.596448150  7.596448150  7.596448150     0.161225990  0.161225990  0.161225990


 
 k-points in units of 2pi/SCALE and weight: kpoints                                 
   0.00000000  0.00000000  0.00000000       1.000
 
 k-points in reciprocal lattice and weights: kpoints                                 
   0.00000000  0.00000000  0.00000000       1.000
 
 position of ions in fractional coordinates (direct lattice) 
   0.50000000  0.50000000  0.50000000
   0.25000000  0.25000000  0.25000000
   0.75000000  0.75000000  0.75000000
   0.00000000  0.00000000  0.00000000
   0.24643954  0.75356046  0.75356046
   0.75356046  0.24643954  0.24643954
   0.75356046  0.24643954  0.75356046
   0.24643954  0.75356046  0.24643954
   0.75356046  0.75356046  0.24643954
   0.24643954  0.24643954  0.75356046
 
 position of ions in cartesian coordinates  (Angst):
   5.37150000  5.37150000  5.37150000
   2.68575000  2.68575000  2.68575000
   8.05725000  8.05725000  8.05725000
   0.00000000  0.00000000  0.00000000
   8.09550000  5.37150000  5.37150000
   2.64750000  5.37150000  5.37150000
   5.37150000  8.09550000  5.37150000
   5.37150000  2.64750000  5.37150000
   5.37150000  5.37150000  8.09550000
   5.37150000  5.37150000  2.64750000
 


--------------------------------------------------------------------------------------------------------


 use serial FFT for orbitals x direction half grid
 k-point   1 :   0.0000 0.0000 0.0000  plane waves:    2801

 maximum and minimum number of plane-waves per node :      2801     2801

 maximum number of plane-waves:      2801
 maximum index in each direction: 
   IXMAX=   12   IYMAX=   12   IZMAX=   12
   IXMIN=    0   IYMIN=  -10   IZMIN=  -10


 serial   3D FFT for wavefunctions
 parallel 3D FFT for charge:
    minimum data exchange during FFTs selected (reduces bandwidth)


 total amount of memory used by VASP MPI-rank0   181740. kBytes
=======================================================================

   base      :      30000. kBytes
   nonl-proj :       3943. kBytes
   fftplans  :      34720. kBytes
   grid      :     107680. kBytes
   one-center:        730. kBytes
   wavefun   :       4667. kBytes
 
     INWAV:  cpu time      0.0001: real time      0.0001
 Broyden mixing: mesh for mixing (old mesh)
   NGX = 25   NGY = 25   NGZ = 25
  (NGX  =100   NGY  =100   NGZ  =100)
  gives a total of  15625 points

 initial charge density was supplied:
 charge density of overlapping atoms calculated
 number of electron      81.0000000 magnetization       5.0000000
 keeping initial charge density in first step


--------------------------------------------------------------------------------------------------------


 Maximum index for augmentation-charges         19477 (set IRDMAX)


--------------------------------------------------------------------------------------------------------


 First call to EWALD:  gamma=   0.262
 Maximum number of real-space cells 3x 3x 3
 Maximum number of reciprocal cells 3x 3x 3

    FEWALD:  cpu time      0.0015: real time      0.0015


--------------------------------------- Ionic step        1  -------------------------------------------




--------------------------------------- Iteration      1(   1)  ---------------------------------------


    POTLOK:  cpu time      0.0535: real time      0.0634
    SETDIJ:  cpu time      3.6523: real time      3.7053
     EDDAV:  cpu time      0.6288: real time      0.6324
       DOS:  cpu time      0.0002: real time      0.0002
    --------------------------------------------
      LOOP:  cpu time      4.3348: real time      4.4014

 eigenvalue-minimisations  :   312
 total energy-change (2. order) : 0.8806933E+03  (-0.3409079E+04)
 number of electron      81.0000000 magnetization       5.0000000
 augmentation part       81.0000000 magnetization       5.0000000

 Free energy of the ion-electron system (eV)
  ---------------------------------------------------
  alpha Z        PSCENC =       234.82269063
  Ewald energy   TEWEN  =     -4610.03387808
  -Hartree energ DENC   =     -2645.26745990
  -exchange      EXHF   =         0.00000000
  -V(xc)+E(xc)   XCENC  =        88.48829591
  PAW double counting   =      6384.18485969    -6530.61817521
  entropy T*S    EENTRO =        -0.00000000
  eigenvalues    EBANDS =       311.46880493
  atomic energy  EATOM  =      7647.64820692
  Solvation  Ediel_sol  =         0.00000000
  ---------------------------------------------------
  free energy    TOTEN  =       880.69334489 eV

  energy without entropy =      880.69334489  energy(sigma->0) =      880.69334489


--------------------------------------------------------------------------------------------------------




--------------------------------------- Iteration      1(   2)  ---------------------------------------


     EDDAV:  cpu time      0.1992: real time      0.2010
       DOS:  cpu time      0.0001: real time      0.0001
    --------------------------------------------
      LOOP:  cpu time      0.1993: real time      0.2011

 eigenvalue-minimisations  :   317
 total energy-change (2. order) :-0.7138110E+03  (-0.6775526E+03)
 number of electron      81.0000000 magnetization       5.0000000
 augmentation part       81.0000000 magnetization       5.0000000

 Free energy of the ion-electron system (eV)
  ---------------------------------------------------
  alpha Z        PSCENC =       234.82269063
  Ewald energy   TEWEN  =     -4610.03387808
  -Hartree energ DENC   =     -2645.26745990
  -exchange      EXHF   =         0.00000000
  -V(xc)+E(xc)   XCENC  =        88.48829591
  PAW double counting   =      6384.18485969    -6530.61817521
  entropy T*S    EENTRO =        -0.00000000
  eigenvalues    EBANDS =      -402.34223764
  atomic energy  EATOM  =      7647.64820692
  Solvation  Ediel_sol  =         0.00000000
  ---------------------------------------------------
  free energy    TOTEN  =       166.88230232 eV

  energy without entropy =      166.88230232  energy(sigma->0) =      166.88230232


--------------------------------------------------------------------------------------------------------




--------------------------------------- Iteration      1(   3)  ---------------------------------------


     EDDAV:  cpu time      0.1830: real time      0.1832
       DOS:  cpu time      0.0001: real time      0.0001
    --------------------------------------------
      LOOP:  cpu time      0.1831: real time      0.1833

 eigenvalue-minimisations  :   304
 total energy-change (2. order) :-0.1868954E+03  (-0.1711004E+03)
 number of electron      81.0000000 magnetization       5.0000000
 augmentation part       81.0000000 magnetization       5.0000000

 Free energy of the ion-electron system (eV)
  ---------------------------------------------------
  alpha Z        PSCENC =       234.82269063
  Ewald energy   TEWEN  =     -4610.03387808
  -Hartree energ DENC   =     -2645.26745990
  -exchange      EXHF   =         0.00000000
  -V(xc)+E(xc)   XCENC  =        88.48829591
  PAW double counting   =      6384.18485969    -6530.61817521
  entropy T*S    EENTRO =        -0.04991549
  eigenvalues    EBANDS =      -589.18775517
  atomic energy  EATOM  =      7647.64820692
  Solvation  Ediel_sol  =         0.00000000
  ---------------------------------------------------
  free energy    TOTEN  =       -20.01313069 eV

  energy without entropy =      -19.96321520  energy(sigma->0) =      -19.98817295


--------------------------------------------------------------------------------------------------------




--------------------------------------- Iteration      1(   4)  ---------------------------------------


     EDDAV:  cpu time      0.1911: real time      0.1924
       DOS:  cpu time      0.0001: real time      0.0001
    --------------------------------------------
      LOOP:  cpu time      0.1912: real time      0.1925

 eigenvalue-minimisations  :   312
 total energy-change (2. order) :-0.1889684E+02  (-0.1862773E+02)
 number of electron      81.0000000 magnetization       5.0000000
 augmentation part       81.0000000 magnetization       5.0000000

 Free energy of the ion-electron system (eV)
  ---------------------------------------------------
  alpha Z        PSCENC =       234.82269063
  Ewald energy   TEWEN  =     -4610.03387808
  -Hartree energ DENC   =     -2645.26745990
  -exchange      EXHF   =         0.00000000
  -V(xc)+E(xc)   XCENC  =        88.48829591
  PAW double counting   =      6384.18485969    -6530.61817521
  entropy T*S    EENTRO =        -0.04717301
  eigenvalues    EBANDS =      -608.08734238
  atomic energy  EATOM  =      7647.64820692
  Solvation  Ediel_sol  =         0.00000000
  ---------------------------------------------------
  free energy    TOTEN  =       -38.90997543 eV

  energy without entropy =      -38.86280242  energy(sigma->0) =      -38.88638892


--------------------------------------------------------------------------------------------------------




--------------------------------------- Iteration      1(   5)  ---------------------------------------


     EDDAV:  cpu time      0.2185: real time      0.2184
       DOS:  cpu time      0.0001: real time      0.0001
    --------------------------------------------
      LOOP:  cpu time      0.2186: real time      0.2185

 eigenvalue-minimisations  :   384
 total energy-change (2. order) :-0.1982982E+01  (-0.1935421E+01)
 number of electron      81.0000000 magnetization       5.0000000
 augmentation part       81.0000000 magnetization       5.0000000

 Free energy of the ion-electron system (eV)
  ---------------------------------------------------
  alpha Z        PSCENC =       234.82269063
  Ewald energy   TEWEN  =     -4610.03387808
  -Hartree energ DENC   =     -2645.26745990
  -exchange      EXHF   =         0.00000000
  -V(xc)+E(xc)   XCENC  =        88.48829591
  PAW double counting   =      6384.18485969    -6530.61817521
  entropy T*S    EENTRO =        -0.07809684
  eigenvalues    EBANDS =      -610.03940061
  atomic energy  EATOM  =      7647.64820692
  Solvation  Ediel_sol  =         0.00000000
  ---------------------------------------------------
  free energy    TOTEN  =       -40.89295749 eV

  energy without entropy =      -40.81486064  energy(sigma->0) =      -40.85390907


--------------------------------------------------------------------------------------------------------




--------------------------------------- Iteration      1(   6)  ---------------------------------------


     EDDAV:  cpu time      0.2299: real time      0.2301
       DOS:  cpu time      0.0001: real time      0.0001
    --------------------------------------------
      LOOP:  cpu time      0.2300: real time      0.2302

 eigenvalue-minimisations  :   392
 total energy-change (2. order) :-0.1359997E+00  (-0.1357662E+00)
 number of electron      81.0000000 magnetization       5.0000000
 augmentation part       81.0000000 magnetization       5.0000000

 Free energy of the ion-electron system (eV)
  ---------------------------------------------------
  alpha Z        PSCENC =       234.82269063
  Ewald energy   TEWEN  =     -4610.03387808
  -Hartree energ DENC   =     -2645.26745990
  -exchange      EXHF   =         0.00000000
  -V(xc)+E(xc)   XCENC  =        88.48829591
  PAW double counting   =      6384.18485969    -6530.61817521
  entropy T*S    EENTRO =        -0.07860349
  eigenvalues    EBANDS =      -610.17489370
  atomic energy  EATOM  =      7647.64820692
  Solvation  Ediel_sol  =         0.00000000
  ---------------------------------------------------
  free energy    TOTEN  =       -41.02895723 eV

  energy without entropy =      -40.95035374  energy(sigma->0) =      -40.98965549


--------------------------------------------------------------------------------------------------------




--------------------------------------- Iteration      1(   7)  ---------------------------------------


     EDDAV:  cpu time      0.1942: real time      0.1955
       DOS:  cpu time      0.0001: real time      0.0001
    --------------------------------------------
      LOOP:  cpu time      0.1943: real time      0.1956

 eigenvalue-minimisations  :   312
 total energy-change (2. order) :-0.8592482E-02  (-0.8573775E-02)
 number of electron      81.0000000 magnetization       5.0000000
 augmentation part       81.0000000 magnetization       5.0000000

 Free energy of the ion-electron system (eV)
  ---------------------------------------------------
  alpha Z        PSCENC =       234.82269063
  Ewald energy   TEWEN  =     -4610.03387808
  -Hartree energ DENC   =     -2645.26745990
  -exchange      EXHF   =         0.00000000
  -V(xc)+E(xc)   XCENC  =        88.48829591
  PAW double counting   =      6384.18485969    -6530.61817521
  entropy T*S    EENTRO =        -0.07820268
  eigenvalues    EBANDS =      -610.18388700
  atomic energy  EATOM  =      7647.64820692
  Solvation  Ediel_sol  =         0.00000000
  ---------------------------------------------------
  free energy    TOTEN  =       -41.03754972 eV

  energy without entropy =      -40.95934703  energy(sigma->0) =      -40.99844838


--------------------------------------------------------------------------------------------------------




--------------------------------------- Iteration      1(   8)  ---------------------------------------


     EDDAV:  cpu time      0.2240: real time      0.2239
       DOS:  cpu time      0.0001: real time      0.0001
    CHARGE:  cpu time      0.0935: real time      0.0937
    MIXING:  cpu time      0.0084: real time      0.0084
    --------------------------------------------
      LOOP:  cpu time      0.3260: real time      0.3261

 eigenvalue-minimisations  :   392
 total energy-change (2. order) :-0.4522387E-03  (-0.4522323E-03)
 number of electron      81.0000015 magnetization       5.0000001
 augmentation part       -3.1864574 magnetization       4.4651645

 Broyden mixing:
  rms(total) = 0.19034E+01    rms(broyden)= 0.19033E+01
  rms(prec ) = 0.24117E+01
  weight for this iteration     100.00

 Free energy of the ion-electron system (eV)
  ---------------------------------------------------
  alpha Z        PSCENC =       234.82269063
  Ewald energy   TEWEN  =     -4610.03387808
  -Hartree energ DENC   =     -2645.26745990
  -exchange      EXHF   =         0.00000000
  -V(xc)+E(xc)   XCENC  =        88.48829591
  PAW double counting   =      6384.18485969    -6530.61817521
  entropy T*S    EENTRO =        -0.07819899
  eigenvalues    EBANDS =      -610.18434293
  atomic energy  EATOM  =      7647.64820692
  Solvation  Ediel_sol  =         0.00000000
  ---------------------------------------------------
  free energy    TOTEN  =       -41.03800196 eV

  energy without entropy =      -40.95980297  energy(sigma->0) =      -40.99890246


--------------------------------------------------------------------------------------------------------




--------------------------------------- Iteration      1(   9)  ---------------------------------------


    POTLOK:  cpu time      0.0196: real time      0.0196
    SETDIJ:  cpu time      3.6251: real time      3.6456
     EDDAV:  cpu time      0.2096: real time      0.2124
       DOS:  cpu time      0.0002: real time      0.0001
    CHARGE:  cpu time      0.0887: real time      0.0893
    MIXING:  cpu time      0.0124: real time      0.0126
    --------------------------------------------
      LOOP:  cpu time      3.9556: real time      3.9795

 eigenvalue-minimisations  :   245
 total energy-change (2. order) : 0.1246302E+01  (-0.8972809E+00)
 number of electron      81.0000018 magnetization       5.0000001
 augmentation part       -2.0518463 magnetization       3.7241462

 Broyden mixing:
  rms(total) = 0.29974E+01    rms(broyden)= 0.29974E+01
  rms(prec ) = 0.32013E+01
  weight for this iteration     100.00

 eigenvalues of (default mixing * dielectric matrix)
  average eigenvalue GAMMA=   0.3202
  0.3202

 Free energy of the ion-electron system (eV)
  ---------------------------------------------------
  alpha Z        PSCENC =       234.82269063
  Ewald energy   TEWEN  =     -4610.03387808
  -Hartree energ DENC   =     -2626.62468841
  -exchange      EXHF   =         0.00000000
  -V(xc)+E(xc)   XCENC  =        90.25438596
  PAW double counting   =      6501.69820178    -6643.16003114
  entropy T*S    EENTRO =        -0.05018830
  eigenvalues    EBANDS =      -634.34639902
  atomic energy  EATOM  =      7647.64820692
  Solvation  Ediel_sol  =         0.00000000
  ---------------------------------------------------
  free energy    TOTEN  =       -39.79169968 eV

  energy without entropy =      -39.74151138  energy(sigma->0) =      -39.76660553


--------------------------------------------------------------------------------------------------------




--------------------------------------- Iteration      1(  10)  ---------------------------------------


    POTLOK:  cpu time      0.0210: real time      0.0210
    SETDIJ:  cpu time      3.6413: real time      3.6778
     EDDAV:  cpu time      0.2333: real time      0.2358
       DOS:  cpu time      0.0002: real time      0.0002
    CHARGE:  cpu time      0.0940: real time      0.0950
    MIXING:  cpu time      0.0105: real time      0.0106
    --------------------------------------------
      LOOP:  cpu time      4.0002: real time      4.0404

 eigenvalue-minimisations  :   277
 total energy-change (2. order) : 0.1257649E+00  (-0.2676071E+00)
 number of electron      81.0000018 magnetization       5.0000001
 augmentation part       -2.9312733 magnetization       4.4827168

 Broyden mixing:
  rms(total) = 0.17401E+01    rms(broyden)= 0.17401E+01
  rms(prec ) = 0.18476E+01
  weight for this iteration     100.00

 eigenvalues of (default mixing * dielectric matrix)
  average eigenvalue GAMMA=   0.3816
  0.3816  0.3816

 Free energy of the ion-electron system (eV)
  ---------------------------------------------------
  alpha Z        PSCENC =       234.82269063
  Ewald energy   TEWEN  =     -4610.03387808
  -Hartree energ DENC   =     -2647.38818646
  -exchange      EXHF   =         0.00000000
  -V(xc)+E(xc)   XCENC  =        90.94448043
  PAW double counting   =      6592.64582385    -6742.16614902
  entropy T*S    EENTRO =        -0.04940136
  eigenvalues    EBANDS =      -606.08952165
  atomic energy  EATOM  =      7647.64820692
  Solvation  Ediel_sol  =         0.00000000
  ---------------------------------------------------
  free energy    TOTEN  =       -39.66593473 eV

  energy without entropy =      -39.61653337  energy(sigma->0) =      -39.64123405


--------------------------------------------------------------------------------------------------------




--------------------------------------- Iteration      1(  11)  ---------------------------------------


    POTLOK:  cpu time      0.0221: real time      0.0222
    SETDIJ:  cpu time      4.3298: real time      4.3769
     EDDAV:  cpu time      0.2837: real time      0.2882
       DOS:  cpu time      0.0002: real time      0.0002
    CHARGE:  cpu time      0.0983: real time      0.0998
    MIXING:  cpu time      0.0120: real time      0.0122
    --------------------------------------------
      LOOP:  cpu time      4.7460: real time      4.7995

 eigenvalue-minimisations  :   328
 total energy-change (2. order) : 0.4476303E-01  (-0.1269618E+00)
 number of electron      81.0000019 magnetization       5.0000001
 augmentation part       -2.6321162 magnetization       4.3196874

 Broyden mixing:
  rms(total) = 0.24160E+01    rms(broyden)= 0.24159E+01
  rms(prec ) = 0.24398E+01
  weight for this iteration     100.00

 eigenvalues of (default mixing * dielectric matrix)
  average eigenvalue GAMMA=   0.4546
  0.5748  0.5748  0.2143

 Free energy of the ion-electron system (eV)
  ---------------------------------------------------
  alpha Z        PSCENC =       234.82269063
  Ewald energy   TEWEN  =     -4610.03387808
  -Hartree energ DENC   =     -2641.30726574
  -exchange      EXHF   =         0.00000000
  -V(xc)+E(xc)   XCENC  =        91.57382587
  PAW double counting   =      6691.99084573    -6840.10629173
  entropy T*S    EENTRO =        -0.03864695
  eigenvalues    EBANDS =      -614.17065835
  atomic energy  EATOM  =      7647.64820692
  Solvation  Ediel_sol  =         0.00000000
  ---------------------------------------------------
  free energy    TOTEN  =       -39.62117170 eV

  energy without entropy =      -39.58252475  energy(sigma->0) =      -39.60184823


--------------------------------------------------------------------------------------------------------




--------------------------------------- Iteration      1(  12)  ---------------------------------------


    POTLOK:  cpu time      0.0223: real time      0.0227
    SETDIJ:  cpu time      3.9266: real time      3.9527
     EDDAV:  cpu time      0.2991: real time      0.2994
       DOS:  cpu time      0.0002: real time      0.0002
    CHARGE:  cpu time      0.0810: real time      0.0810
    MIXING:  cpu time      0.0122: real time      0.0122
    --------------------------------------------
      LOOP:  cpu time      4.3414: real time      4.3682

 eigenvalue-minimisations  :   344
 total energy-change (2. order) :-0.2704808E+00  (-0.5917852E-01)
 number of electron      81.0000019 magnetization       5.0000001
 augmentation part       -2.2073033 magnetization       3.9214434

 Broyden mixing:
  rms(total) = 0.32252E+01    rms(broyden)= 0.32252E+01
  rms(prec ) = 0.33573E+01
  weight for this iteration     100.00

 eigenvalues of (default mixing * dielectric matrix)
  average eigenvalue GAMMA=   0.3762
  0.5299  0.5299  0.2225  0.2225

 Free energy of the ion-electron system (eV)
  ---------------------------------------------------
  alpha Z        PSCENC =       234.82269063
  Ewald energy   TEWEN  =     -4610.03387808
  -Hartree energ DENC   =     -2636.94931534
  -exchange      EXHF   =         0.00000000
  -V(xc)+E(xc)   XCENC  =        91.76141729
  PAW double counting   =      6740.81837450    -6887.72520410
  entropy T*S    EENTRO =        -0.03855807
  eigenvalues    EBANDS =      -620.19538626
  atomic energy  EATOM  =      7647.64820692
  Solvation  Ediel_sol  =         0.00000000
  ---------------------------------------------------
  free energy    TOTEN  =       -39.89165250 eV

  energy without entropy =      -39.85309444  energy(sigma->0) =      -39.87237347


--------------------------------------------------------------------------------------------------------




--------------------------------------- Iteration      1(  13)  ---------------------------------------


    POTLOK:  cpu time      0.0166: real time      0.0166
    SETDIJ:  cpu time      3.7042: real time      3.7190
     EDDAV:  cpu time      0.2427: real time      0.2440
       DOS:  cpu time      0.0002: real time      0.0001
    CHARGE:  cpu time      0.0811: real time      0.0814
    MIXING:  cpu time      0.0106: real time      0.0106
    --------------------------------------------
      LOOP:  cpu time      4.0554: real time      4.0717

 eigenvalue-minimisations  :   304
 total energy-change (2. order) : 0.2502767E+00  (-0.5001769E-01)
 number of electron      81.0000019 magnetization       5.0000001
 augmentation part       -2.7634954 magnetization       4.4238391

 Broyden mixing:
  rms(total) = 0.19464E+01    rms(broyden)= 0.19464E+01
  rms(prec ) = 0.19698E+01
  weight for this iteration     100.00

 eigenvalues of (default mixing * dielectric matrix)
  average eigenvalue GAMMA=   0.7238
  1.1458  1.1458  0.5635  0.3821  0.3821

 Free energy of the ion-electron system (eV)
  ---------------------------------------------------
  alpha Z        PSCENC =       234.82269063
  Ewald energy   TEWEN  =     -4610.03387808
  -Hartree energ DENC   =     -2644.00259795
  -exchange      EXHF   =         0.00000000
  -V(xc)+E(xc)   XCENC  =        91.57741996
  PAW double counting   =      6735.42636252    -6884.41668385
  entropy T*S    EENTRO =        -0.03855401
  eigenvalues    EBANDS =      -610.62434192
  atomic energy  EATOM  =      7647.64820692
  Solvation  Ediel_sol  =         0.00000000
  ---------------------------------------------------
  free energy    TOTEN  =       -39.64137578 eV

  energy without entropy =      -39.60282178  energy(sigma->0) =      -39.62209878


--------------------------------------------------------------------------------------------------------




--------------------------------------- Iteration      1(  14)  ---------------------------------------


    POTLOK:  cpu time      0.0186: real time      0.0186
    SETDIJ:  cpu time      3.6002: real time      3.6036
     EDDAV:  cpu time      0.2520: real time      0.2519
       DOS:  cpu time      0.0002: real time      0.0002
    CHARGE:  cpu time      0.0718: real time      0.0728
    MIXING:  cpu time      0.0105: real time      0.0105
    --------------------------------------------
      LOOP:  cpu time      3.9532: real time      3.9577

 eigenvalue-minimisations  :   282
 total energy-change (2. order) :-0.1342947E+00  (-0.1427647E-01)
 number of electron      81.0000019 magnetization       5.0000000
 augmentation part       -2.5656086 magnetization       4.2525019

 Broyden mixing:
  rms(total) = 0.17592E+01    rms(broyden)= 0.17592E+01
  rms(prec ) = 0.18031E+01
  weight for this iteration     100.00

 eigenvalues of (default mixing * dielectric matrix)
  average eigenvalue GAMMA=   1.0655
  2.9785  0.9737  0.9737  0.8178  0.3247  0.3247

 Free energy of the ion-electron system (eV)
  ---------------------------------------------------
  alpha Z        PSCENC =       234.82269063
  Ewald energy   TEWEN  =     -4610.03387808
  -Hartree energ DENC   =     -2639.10795945
  -exchange      EXHF   =         0.00000000
  -V(xc)+E(xc)   XCENC  =        91.81228783
  PAW double counting   =      6887.73328088    -7035.18347754
  entropy T*S    EENTRO =        -0.03856172
  eigenvalues    EBANDS =      -617.42825992
  atomic energy  EATOM  =      7647.64820692
  Solvation  Ediel_sol  =         0.00000000
  ---------------------------------------------------
  free energy    TOTEN  =       -39.77567045 eV

  energy without entropy =      -39.73710873  energy(sigma->0) =      -39.75638959


--------------------------------------------------------------------------------------------------------




--------------------------------------- Iteration      1(  15)  ---------------------------------------


    POTLOK:  cpu time      0.0140: real time      0.0142
    SETDIJ:  cpu time      3.6095: real time      3.6283
     EDDAV:  cpu time      0.2631: real time      0.2630
       DOS:  cpu time      0.0002: real time      0.0001
    CHARGE:  cpu time      0.1013: real time      0.1013
    MIXING:  cpu time      0.0169: real time      0.0169
    --------------------------------------------
      LOOP:  cpu time      4.0050: real time      4.0240

 eigenvalue-minimisations  :   288
 total energy-change (2. order) : 0.1970617E-01  (-0.2776662E-01)
 number of electron      81.0000019 magnetization       5.0000000
 augmentation part       -2.5480705 magnetization       4.2404714

 Broyden mixing:
  rms(total) = 0.16319E+01    rms(broyden)= 0.16319E+01
  rms(prec ) = 0.16791E+01
  weight for this iteration     100.00

 eigenvalues of (default mixing * dielectric matrix)
  average eigenvalue GAMMA=   1.0033
  2.4287  1.2208  1.2208  0.7447  0.7447  0.3316  0.3316

 Free energy of the ion-electron system (eV)
  ---------------------------------------------------
  alpha Z        PSCENC =       234.82269063
  Ewald energy   TEWEN  =     -4610.03387808
  -Hartree energ DENC   =     -2644.11644981
  -exchange      EXHF   =         0.00000000
  -V(xc)+E(xc)   XCENC  =        93.11504143
  PAW double counting   =      7332.71827142    -7483.06856347
  entropy T*S    EENTRO =        -0.04020169
  eigenvalues    EBANDS =      -610.80108163
  atomic energy  EATOM  =      7647.64820692
  Solvation  Ediel_sol  =         0.00000000
  ---------------------------------------------------
  free energy    TOTEN  =       -39.75596428 eV

  energy without entropy =      -39.71576259  energy(sigma->0) =      -39.73586344


--------------------------------------------------------------------------------------------------------




--------------------------------------- Iteration      1(  16)  ---------------------------------------


    POTLOK:  cpu time      0.0207: real time      0.0207
    SETDIJ:  cpu time      3.6207: real time      3.6432
     EDDAV:  cpu time      0.2710: real time      0.2749
       DOS:  cpu time      0.0001: real time      0.0001
    CHARGE:  cpu time      0.0714: real time      0.0726
    MIXING:  cpu time      0.0115: real time      0.0117
    --------------------------------------------
      LOOP:  cpu time      3.9955: real time      4.0232

 eigenvalue-minimisations  :   314
 total energy-change (2. order) : 0.7805767E-01  (-0.2457891E-01)
 number of electron      81.0000019 magnetization       5.0000000
 augmentation part       -2.7431976 magnetization       4.4104742

 Broyden mixing:
  rms(total) = 0.70008E+00    rms(broyden)= 0.70007E+00
  rms(prec ) = 0.70324E+00
  weight for this iteration     100.00

 eigenvalues of (default mixing * dielectric matrix)
  average eigenvalue GAMMA=   1.0447
  2.4153  1.4243  1.4243  1.0412  0.6954  0.6954  0.3308  0.3308

 Free energy of the ion-electron system (eV)
  ---------------------------------------------------
  alpha Z        PSCENC =       234.82269063
  Ewald energy   TEWEN  =     -4610.03387808
  -Hartree energ DENC   =     -2652.78659852
  -exchange      EXHF   =         0.00000000
  -V(xc)+E(xc)   XCENC  =        93.27858544
  PAW double counting   =      7189.45959292    -7343.31863679
  entropy T*S    EENTRO =        -0.03869854
  eigenvalues    EBANDS =      -598.70917059
  atomic energy  EATOM  =      7647.64820692
  Solvation  Ediel_sol  =         0.00000000
  ---------------------------------------------------
  free energy    TOTEN  =       -39.67790662 eV

  energy without entropy =      -39.63920807  energy(sigma->0) =      -39.65855734


--------------------------------------------------------------------------------------------------------




--------------------------------------- Iteration      1(  17)  ---------------------------------------


    POTLOK:  cpu time      0.0139: real time      0.0142
    SETDIJ:  cpu time      3.6619: real time      3.6969
     EDDAV:  cpu time      0.2876: real time      0.2914
       DOS:  cpu time      0.0002: real time      0.0002
    CHARGE:  cpu time      0.0758: real time      0.0765
    MIXING:  cpu time      0.0137: real time      0.0139
    --------------------------------------------
      LOOP:  cpu time      4.0531: real time      4.0931

 eigenvalue-minimisations  :   360
 total energy-change (2. order) :-0.1080477E-01  (-0.9403753E-02)
 number of electron      81.0000019 magnetization       5.0000000
 augmentation part       -2.7925216 magnetization       4.4331964

 Broyden mixing:
  rms(total) = 0.78088E+00    rms(broyden)= 0.78087E+00
  rms(prec ) = 0.78490E+00
  weight for this iteration     100.00

 eigenvalues of (default mixing * dielectric matrix)
  average eigenvalue GAMMA=   1.0222
  2.3725  1.5556  1.5556  1.0127  0.8427  0.8427  0.3308  0.3308  0.3565

 Free energy of the ion-electron system (eV)
  ---------------------------------------------------
  alpha Z        PSCENC =       234.82269063
  Ewald energy   TEWEN  =     -4610.03387808
  -Hartree energ DENC   =     -2655.98543602
  -exchange      EXHF   =         0.00000000
  -V(xc)+E(xc)   XCENC  =        93.35530808
  PAW double counting   =      7168.65583125    -7324.22584480
  entropy T*S    EENTRO =        -0.03875614
  eigenvalues    EBANDS =      -593.88683322
  atomic energy  EATOM  =      7647.64820692
  Solvation  Ediel_sol  =         0.00000000
  ---------------------------------------------------
  free energy    TOTEN  =       -39.68871138 eV

  energy without entropy =      -39.64995525  energy(sigma->0) =      -39.66933331


--------------------------------------------------------------------------------------------------------




--------------------------------------- Iteration      1(  18)  ---------------------------------------


    POTLOK:  cpu time      0.0183: real time      0.0190
    SETDIJ:  cpu time      3.6582: real time      3.6971
     EDDAV:  cpu time      0.2625: real time      0.2655
       DOS:  cpu time      0.0001: real time      0.0001
    CHARGE:  cpu time      0.0867: real time      0.0872
    MIXING:  cpu time      0.0150: real time      0.0152
    --------------------------------------------
      LOOP:  cpu time      4.0407: real time      4.0841

 eigenvalue-minimisations  :   344
 total energy-change (2. order) : 0.1003180E-02  (-0.2224448E-02)
 number of electron      81.0000019 magnetization       5.0000000
 augmentation part       -2.7648274 magnetization       4.4126483

 Broyden mixing:
  rms(total) = 0.46150E+00    rms(broyden)= 0.46150E+00
  rms(prec ) = 0.46445E+00
  weight for this iteration     100.00

 eigenvalues of (default mixing * dielectric matrix)
  average eigenvalue GAMMA=   1.1005
  2.9159  1.5487  1.5487  1.0580  1.0580  0.8112  0.8112  0.3308  0.3308  0.5916

 Free energy of the ion-electron system (eV)
  ---------------------------------------------------
  alpha Z        PSCENC =       234.82269063
  Ewald energy   TEWEN  =     -4610.03387808
  -Hartree energ DENC   =     -2654.18135470
  -exchange      EXHF   =         0.00000000
  -V(xc)+E(xc)   XCENC  =        93.30840149
  PAW double counting   =      7175.87684174    -7331.09208528
  entropy T*S    EENTRO =        -0.03878091
  eigenvalues    EBANDS =      -595.99775000
  atomic energy  EATOM  =      7647.64820692
  Solvation  Ediel_sol  =         0.00000000
  ---------------------------------------------------
  free energy    TOTEN  =       -39.68770820 eV

  energy without entropy =      -39.64892729  energy(sigma->0) =      -39.66831775


--------------------------------------------------------------------------------------------------------




--------------------------------------- Iteration      1(  19)  ---------------------------------------


    POTLOK:  cpu time      0.0198: real time      0.0200
    SETDIJ:  cpu time      3.6145: real time      3.6274
     EDDAV:  cpu time      0.2064: real time      0.2076
       DOS:  cpu time      0.0001: real time      0.0001
    CHARGE:  cpu time      0.0750: real time      0.0752
    MIXING:  cpu time      0.0126: real time      0.0126
    --------------------------------------------
      LOOP:  cpu time      3.9284: real time      3.9429

 eigenvalue-minimisations  :   240
 total energy-change (2. order) : 0.4512832E-03  (-0.9877379E-03)
 number of electron      81.0000019 magnetization       5.0000000
 augmentation part       -2.7756822 magnetization       4.4183314

 Broyden mixing:
  rms(total) = 0.45404E+00    rms(broyden)= 0.45404E+00
  rms(prec ) = 0.45453E+00
  weight for this iteration     100.00

 eigenvalues of (default mixing * dielectric matrix)
  average eigenvalue GAMMA=   1.1385
  2.1617  2.1617  1.5540  1.5540  1.1212  1.1212  0.8513  0.8513  0.3308  0.3308
  0.4855

 Free energy of the ion-electron system (eV)
  ---------------------------------------------------
  alpha Z        PSCENC =       234.82269063
  Ewald energy   TEWEN  =     -4610.03387808
  -Hartree energ DENC   =     -2653.48482630
  -exchange      EXHF   =         0.00000000
  -V(xc)+E(xc)   XCENC  =        93.31294008
  PAW double counting   =      7236.21546786    -7391.39803185
  entropy T*S    EENTRO =        -0.03938968
  eigenvalues    EBANDS =      -596.73043650
  atomic energy  EATOM  =      7647.64820692
  Solvation  Ediel_sol  =         0.00000000
  ---------------------------------------------------
  free energy    TOTEN  =       -39.68725692 eV

  energy without entropy =      -39.64786724  energy(sigma->0) =      -39.66756208


--------------------------------------------------------------------------------------------------------




--------------------------------------- Iteration      1(  20)  ---------------------------------------


    POTLOK:  cpu time      0.0158: real time      0.0157
    SETDIJ:  cpu time      3.6306: real time      3.6580
     EDDAV:  cpu time      0.2637: real time      0.2719
       DOS:  cpu time      0.0001: real time      0.0001
    CHARGE:  cpu time      0.0732: real time      0.0733
    MIXING:  cpu time      0.0130: real time      0.0130
    --------------------------------------------
      LOOP:  cpu time      3.9965: real time      4.0321

 eigenvalue-minimisations  :   336
 total energy-change (2. order) :-0.8249194E-03  (-0.1454172E-03)
 number of electron      81.0000019 magnetization       5.0000000
 augmentation part       -2.7825137 magnetization       4.4212513

 Broyden mixing:
  rms(total) = 0.12440E+00    rms(broyden)= 0.12440E+00
  rms(prec ) = 0.12640E+00
  weight for this iteration     100.00

 eigenvalues of (default mixing * dielectric matrix)
  average eigenvalue GAMMA=   1.1546
  2.2473  2.2473  1.5877  1.5877  1.1872  1.1872  0.8524  0.8524  0.9461  0.3308
  0.3308  0.4978

 Free energy of the ion-electron system (eV)
  ---------------------------------------------------
  alpha Z        PSCENC =       234.82269063
  Ewald energy   TEWEN  =     -4610.03387808
  -Hartree energ DENC   =     -2653.55744706
  -exchange      EXHF   =         0.00000000
  -V(xc)+E(xc)   XCENC  =        93.27747803
  PAW double counting   =      7224.34597858    -7379.85230255
  entropy T*S    EENTRO =        -0.03990772
  eigenvalues    EBANDS =      -596.29890060
  atomic energy  EATOM  =      7647.64820692
  Solvation  Ediel_sol  =         0.00000000
  ---------------------------------------------------
  free energy    TOTEN  =       -39.68808184 eV

  energy without entropy =      -39.64817412  energy(sigma->0) =      -39.66812798


--------------------------------------------------------------------------------------------------------




--------------------------------------- Iteration      1(  21)  ---------------------------------------


    POTLOK:  cpu time      0.0144: real time      0.0144
    SETDIJ:  cpu time      3.6177: real time      3.6314
     EDDAV:  cpu time      0.2580: real time      0.2596
       DOS:  cpu time      0.0002: real time      0.0002
    CHARGE:  cpu time      0.0894: real time      0.0894
    MIXING:  cpu time      0.0194: real time      0.0194
    --------------------------------------------
      LOOP:  cpu time      3.9991: real time      4.0143

 eigenvalue-minimisations  :   301
 total energy-change (2. order) :-0.8193175E-03  (-0.1272608E-03)
 number of electron      81.0000019 magnetization       5.0000000
 augmentation part       -2.7774035 magnetization       4.4171170

 Broyden mixing:
  rms(total) = 0.87303E-01    rms(broyden)= 0.87268E-01
  rms(prec ) = 0.87848E-01
  weight for this iteration     100.00

 eigenvalues of (default mixing * dielectric matrix)
  average eigenvalue GAMMA=   1.1594
  2.4691  2.4691  1.5905  1.5905  1.2777  0.9968  0.9968  0.9079  0.9079  0.3308
  0.3308  0.7161  0.4887

 Free energy of the ion-electron system (eV)
  ---------------------------------------------------
  alpha Z        PSCENC =       234.82269063
  Ewald energy   TEWEN  =     -4610.03387808
  -Hartree energ DENC   =     -2652.97361024
  -exchange      EXHF   =         0.00000000
  -V(xc)+E(xc)   XCENC  =        93.26063686
  PAW double counting   =      7230.64585910    -7385.92642678
  entropy T*S    EENTRO =        -0.04233950
  eigenvalues    EBANDS =      -597.09004006
  atomic energy  EATOM  =      7647.64820692
  Solvation  Ediel_sol  =         0.00000000
  ---------------------------------------------------
  free energy    TOTEN  =       -39.68890115 eV

  energy without entropy =      -39.64656165  energy(sigma->0) =      -39.66773140


--------------------------------------------------------------------------------------------------------




--------------------------------------- Iteration      1(  22)  ---------------------------------------


    POTLOK:  cpu time      0.0197: real time      0.0197
    SETDIJ:  cpu time      3.8037: real time      3.8240
     EDDAV:  cpu time      0.2888: real time      0.2924
       DOS:  cpu time      0.0001: real time      0.0001
    CHARGE:  cpu time      0.0850: real time      0.0860
    MIXING:  cpu time      0.0150: real time      0.0152
    --------------------------------------------
      LOOP:  cpu time      4.2123: real time      4.2374

 eigenvalue-minimisations  :   357
 total energy-change (2. order) :-0.1943435E-02  (-0.4187956E-04)
 number of electron      81.0000019 magnetization       5.0000000
 augmentation part       -2.7775894 magnetization       4.4177788

 Broyden mixing:
  rms(total) = 0.38787E-01    rms(broyden)= 0.38034E-01
  rms(prec ) = 0.39773E-01
  weight for this iteration     100.00

 eigenvalues of (default mixing * dielectric matrix)
  average eigenvalue GAMMA=   1.1134
  2.5162  2.5162  1.5901  1.5901  1.2535  1.0406  1.0406  0.8881  0.8881  0.3308
  0.3308  0.7963  0.4908  0.3145

 Free energy of the ion-electron system (eV)
  ---------------------------------------------------
  alpha Z        PSCENC =       234.82269063
  Ewald energy   TEWEN  =     -4610.03387808
  -Hartree energ DENC   =     -2652.72976394
[...]
  106                    map_gather                            1.356560              984   9
  107        brmix                                25.728727                          492   3
  108          brpre                                 0.048717                        984   4
  109          setg0                                 1.841635                        494   4
  110          broyd                                21.262175                        492   4
  111            brsav                                 1.055253                    32849   5
  112            brget                                 3.347264                   113757   5
  113      rotate_active_occupied_orbital        0.000349                              1   2
  114      sphpro_fast                           0.029649                              2   2
  115      force_and_stress                      4.526437                              1   2
  116        set_charge                            0.074275                            1   3
  117          soft_charge                           0.020720                          1   4
  118            fftwav_mpi                            0.010854                       86   5
  119              fftwav                                0.010710                     86   6
  120                fft3d                                 0.006437                   86   7
  121            pw_charge                             0.001770                       86   5
  122            fft_gq                                0.001838                        1   5
  123              fft3d_mpi                             0.001756                      2   6
  124                fftbrc_mpi                            0.001223                    2   7
  125                  fftbas_plan_mpi                       0.001220                  2   8
  126                    dfftw_execute                         0.000939                6   9
  127                    map_backward                          0.000252                4   9
  128                      map_gather                            0.000160              2  10
  129          depsum                                0.001862                          1   4
  130          augmentation_charge                   0.040146                          1   4
  131            fft3d_mpi                             0.016765                        2   5
  132              fftbrc_mpi                            0.011379                      2   6
  133                fftbas_plan_mpi                       0.011378                    2   7
  134                  dfftw_execute                         0.008539                  6   8
  135                  map_backward                          0.002800                  4   8
  136                    map_gather                            0.002128                2   9
  137        forloc                                0.007053                            1   3
  138        fornl                                 0.067380                            1   3
  139          phase                                 0.000010                          1   4
  140        fordep                                0.083796                            1   3
  141          setdij_                               0.083435                          6   4
  142        setdij_                               0.277989                           20   3
  143        set_dd_magatom                        0.000003                            1   3
  144        set_dd_paw                            3.561338                            1   3
  145          set_rsgf_all                          0.000001                          1   4
  146        strkin                                0.000310                            1   3
  147        strelo                                0.012068                            1   3
  148        strenl                                0.320750                            1   3
  149          spher                                 0.036339                         19   4
  150          phase                                 0.000102                          9   4
  151          proj1_acc                             0.138921                        918   4
  152        fft3d_mpi                             0.004376                           22   3
  153          fftbrc_mpi                            0.003072                         22   4
  154            fftbas_plan_mpi                       0.003064                       22   5
  155              map_forward                           0.001186                     20   6
  156                map_scatter                           0.000496                   10   7
  157              map_backward                          0.001193                     24   6
  158                map_gather                            0.000564                   12   7
  159        forhar                                0.009953                            2   3
  160        strehar                               0.006806                            1   3
  161        chggra                                0.002951                            1   3
  162          fft3d_mpi                             0.000619                          3   4
  163            fftbrc_mpi                            0.000438                        3   5
  164              fftbas_plan_mpi                       0.000436                      3   6
  165                map_forward                           0.000236                    4   7
  166                  map_scatter                           0.000099                  2   8
  167                map_backward                          0.000098                    2   7
  168                  map_gather                            0.000048                  1   8
  169          pothar                                0.000121                          1   4
  170        brmix                                 0.060024                            1   3
  171          brpre                                 0.000076                          2   4
  172          setg0                                 0.006055                          1   4
  173          broyd                                 0.043945                          1   4
  174            brget                                 0.007205                      219   5
  175            brsav                                 0.002473                       47   5
  176      potlok                                0.014133                              1   2
  177        fft3d_mpi                             0.006491                           26   3
  178          fftbrc_mpi                            0.004535                         26   4
  179            fftbas_plan_mpi                       0.004514                       26   5
  180              map_forward                           0.002090                     28   6
  181                map_scatter                           0.000698                   14   7
  182              map_backward                          0.001399                     24   6
  183                map_gather                            0.000687                   12   7
  184        pothar                                0.000217                            1   3
  185      potlok_metagga                        0.000000                              1   2
  186      set_dd_magatom                        0.000002                              1   2
  187      set_dd_paw                            3.593304                              1   2
  188        set_rsgf_all                          0.000001                            1   3
  189      augmentation_charge                   0.034269                              1   2
  190        fft3d_mpi                             0.015125                            2   3
  191          fftbrc_mpi                            0.009869                          2   4
  192            fftbas_plan_mpi                       0.009867                        2   5
  193              dfftw_execute                         0.007131                      6   6
  194              map_backward                          0.002699                      4   6
  195                map_gather                            0.002030                    2   7
  196      densta                                0.000125                              1   2
 
 Flat profile
 ============
 
             routine name                   CPU           calls
 ---------------------------------------------------------------
 set_dd_paw                           1899.681748         495
 eddav                                  32.496912         500
 fft3d                                  29.516615      404482
 lapack                                 21.054692       24695
 broyd                                  16.893926         493
 augmentation_charge                    12.604610         494
 setdij_                                 9.743065         521
 total_time                              7.584581           1
 eccp                                    7.081156       51000
 set_charge                              6.299616         493
 potlok                                  5.742505         494
 fftwav                                  4.603819      223437
 dfftw_execute                           4.587465        5970
 fft3d_mpi                               4.154259      195904
 overl1                                  3.504066      181045
 w1_copy                                 3.455748      543135
 brget                                   3.354468      113976
 soft_charge                             3.149982         493
 overl                                   3.074760      311092
 vnlac0_acc                              2.675619      181045
 hamiltmu                                2.632992       24695
 brmix                                   2.586147         493
 setup_precond                           2.328906       51000
 setg0                                   1.847691         495
 orth1                                   1.796511       74093
 map_gather                              1.716317        7921
 elmin                                   1.663218           1
 init_acc                                1.383442           1
 fftext_mpi                              1.352917      181045
 kinhamil                                1.093386      181045
 brsav                                   1.057726       32896
 projmu_acc                              1.049960       17695
 depsum                                  1.024192         493
 vhamil                                  0.972536      181045
 newband                                 0.886719       25695
 pw_charge                               0.786437       42392
 apply_precond                           0.780078      130045
 map_backward                            0.725681       15842
 ggemm                                   0.696253       31695
 fftbas_plan_mpi                         0.454332       14859
 fftwav_mpi                              0.411780      223437
 map_forward                             0.399894       13876
 map_scatter                             0.267848        6938
 strenl                                  0.145388           1
 proj1_acc                               0.141864        1020
 fornl                                   0.067370           1
 proall                                  0.065639           1
 lincom                                  0.063054        1002
 pothar                                  0.058622         495
 acc_cufft_makeplan                      0.057275          19
 densta                                  0.051840         501
 brpre                                   0.048793         986
 spher                                   0.039483          20
 stufak                                  0.039126           1
 force_and_stress                        0.037366           1
 fft_gq                                  0.033918         493
 sphpro_fast                             0.029649           2
 w1_projall                              0.026793       17695
 truncate_high_frequency_w1              0.025581      232045
 acc_init_cublas                         0.022253           1
 strelo                                  0.012068           1
 wfinit                                  0.011672           1
 fftbrc_mpi                              0.010593       14859
 phase                                   0.010372        1012
 forhar                                  0.009953           2
 choleski                                0.007426           2
 inisym                                  0.007129           1
 forloc                                  0.007053           1
 strehar                                 0.006806           1
 acc_init_cusolver                       0.005537           1
 proj                                    0.003512           1
 vectorpot                               0.003165         494
 orthch                                  0.002465           1
 chggra                                  0.002211           1
 set_dd_magatom                          0.001626         495
 rsp                                     0.000965           1
 brgrid                                  0.000846           1
 fewald                                  0.000502           1
 fordep                                  0.000361           1
 set_rsgf_all                            0.000360         495
 rotate_active_occupied_orbital          0.000349           1
 strkin                                  0.000310           1
 posmap                                  0.000113           2
 potlok_metagga                          0.000061         494
 rcp                                     0.000040           1
 crpa_reader                             0.000038           1
 acc_cufft_makeplans                     0.000034           3
 redis_pw_over_bands                     0.000000           1
 ---------------------------------------------------------------
  summed up times     2110.234157085419     
 
 Accumulative profile
 ====================
 
             routine name                   CPU           calls
 ---------------------------------------------------------------
 total_time                           2110.234157           1
 elmin                                2092.596869           1
 set_dd_paw                           1899.682108         495
 eddav                                 116.975275         500
 set_charge                             38.359824         493
 fft3d                                  29.516615      404482
 hamiltmu                               27.060072       24695
 fft3d_mpi                              27.051438      195904
 brmix                                  25.788751         493
 augmentation_charge                    21.397079         494
 broyd                                  21.306120         493
 lapack                                 21.054692       24695
 fftwav_mpi                             19.797166      223437
 fftwav                                 19.385386      223437
 kinhamil                               17.274859      181045
 fftext_mpi                             16.181473      181045
 newband                                15.424901       25695
 setdij_                                 9.743065         521
 soft_charge                             9.673206         493
 fftbrc_mpi                              8.162131       14859
 fftbas_plan_mpi                         8.151538       14859
 potlok                                  8.038764         494
 eccp                                    7.081156       51000
 dfftw_execute                           4.587465        5970
 force_and_stress                        4.526437           1
 overl1                                  3.504066      181045
 w1_copy                                 3.455748      543135
 brget                                   3.354468      113976
 overl                                   3.074760      311092
 vnlac0_acc                              2.675619      181045
 map_backward                            2.441998       15842
 setup_precond                           2.328906       51000
 setg0                                   1.847691         495
 orth1                                   1.796511       74093
 map_gather                              1.716317        7921
 init_acc                                1.383442           1
 w1_projall                              1.076753       17695
 fft_gq                                  1.073690         493
 brsav                                   1.057726       32896
 projmu_acc                              1.049960       17695
 depsum                                  1.024192         493
 vhamil                                  0.972536      181045
 pw_charge                               0.786437       42392
 apply_precond                           0.780078      130045
 ggemm                                   0.696253       31695
 map_forward                             0.667742       13876
 strenl                                  0.320750           1
 map_scatter                             0.267848        6938
 proj1_acc                               0.141864        1020
 fordep                                  0.083796           1
 proall                                  0.075892           1
 fornl                                   0.067380           1
 lincom                                  0.063054        1002
 pothar                                  0.058622         495
 acc_cufft_makeplans                     0.057309           3
 acc_cufft_makeplan                      0.057275          19
 orthch                                  0.052339           1
 densta                                  0.051840         501
 brpre                                   0.048793         986
 spher                                   0.039483          20
 stufak                                  0.039126           1
 sphpro_fast                             0.029649           2
 truncate_high_frequency_w1              0.025581      232045
 acc_init_cublas                         0.022253           1
 strelo                                  0.012068           1
 wfinit                                  0.011672           1
 phase                                   0.010372        1012
 forhar                                  0.009953           2
 choleski                                0.007426           2
 inisym                                  0.007242           1
 forloc                                  0.007053           1
 strehar                                 0.006806           1
 proj                                    0.006455           1
 acc_init_cusolver                       0.005537           1
 vectorpot                               0.003165         494
 chggra                                  0.002951           1
 set_dd_magatom                          0.001626         495
 fewald                                  0.001507           1
 rsp                                     0.000965           1
 brgrid                                  0.000846           1
 set_rsgf_all                            0.000360         495
 rotate_active_occupied_orbital          0.000349           1
 strkin                                  0.000310           1
 posmap                                  0.000113           2
 potlok_metagga                          0.000061         494
 rcp                                     0.000040           1
 crpa_reader                             0.000038           1
 redis_pw_over_bands                     0.000000           1
 ---------------------------------------------------------------
 
Profiling took   0.807625  0.342145  0.006757  0.006710 seconds
Profiling took   0.470820 seconds
