PROCAR new format
# of k-points:    1         # of bands:   51         # of ions:   10

 k-point     1 :    0.00000000 0.00000000 0.00000000     weight = 1.00000000

band     1 # energy  -46.16096671 # occ.  1.00000000
 
ion      s      p      d      f    tot
    1  0.985  0.000  0.000  0.000  0.985
    2  0.000  0.000  0.000  0.000  0.000
    3  0.000  0.000  0.000  0.000  0.000
    4  0.000  0.000  0.000  0.000  0.000
    5  0.000  0.000  0.000  0.000  0.000
    6  0.000  0.000  0.000  0.000  0.000
    7  0.000  0.000  0.000  0.000  0.000
    8  0.000  0.000  0.000  0.000  0.000
    9  0.000  0.000  0.000  0.000  0.000
   10  0.000  0.000  0.000  0.000  0.000
tot    0.985  0.000  0.000  0.000  0.985
 
band     2 # energy  -21.86351165 # occ.  1.00000000
 
ion      s      p      d      f    tot
    1  0.000  0.923  0.000  0.000  0.923
    2  0.000  0.000  0.000  0.000  0.000
    3  0.000  0.000  0.000  0.000  0.000
    4  0.000  0.000  0.000  0.000  0.000
    5  0.001  0.000  0.000  0.000  0.001
    6  0.001  0.000  0.000  0.000  0.001
    7  0.001  0.000  0.000  0.000  0.001
    8  0.001  0.000  0.000  0.000  0.001
    9  0.001  0.000  0.000  0.000  0.001
   10  0.001  0.000  0.000  0.000  0.001
tot    0.004  0.924  0.000  0.000  0.928
 
band     3 # energy  -21.86348233 # occ.  1.00000000
 
ion      s      p      d      f    tot
    1  0.000  0.923  0.000  0.000  0.923
    2  0.000  0.000  0.000  0.000  0.000
    3  0.000  0.000  0.000  0.000  0.000
    4  0.000  0.000  0.000  0.000  0.000
    5  0.001  0.000  0.000  0.000  0.001
    6  0.001  0.000  0.000  0.000  0.001
    7  0.001  0.000  0.000  0.000  0.001
    8  0.001  0.000  0.000  0.000  0.001
    9  0.000  0.000  0.000  0.000  0.000
   10  0.000  0.000  0.000  0.000  0.000
tot    0.004  0.924  0.000  0.000  0.928
 
band     4 # energy  -21.86348232 # occ.  1.00000000
 
ion      s      p      d      f    tot
    1  0.000  0.923  0.000  0.000  0.923
    2  0.000  0.000  0.000  0.000  0.000
    3  0.000  0.000  0.000  0.000  0.000
    4  0.000  0.000  0.000  0.000  0.000
    5  0.000  0.000  0.000  0.000  0.001
    6  0.000  0.000  0.000  0.000  0.001
    7  0.000  0.000  0.000  0.000  0.000
    8  0.000  0.000  0.000  0.000  0.000
    9  0.001  0.001  0.000  0.000  0.002
   10  0.001  0.001  0.000  0.000  0.002
tot    0.004  0.924  0.000  0.000  0.928
 
band     5 # energy  -19.67152100 # occ.  1.00000000
 
ion      s      p      d      f    tot
    1  0.000  0.000  0.000  0.000  0.000
    2  0.458  0.000  0.000  0.000  0.458
    3  0.458  0.000  0.000  0.000  0.458
    4  0.000  0.000  0.000  0.000  0.000
    5  0.000  0.000  0.000  0.000  0.000
    6  0.000  0.000  0.000  0.000  0.000
    7  0.000  0.000  0.000  0.000  0.000
    8  0.000  0.000  0.000  0.000  0.000
    9  0.000  0.000  0.000  0.000  0.000
   10  0.000  0.000  0.000  0.000  0.000
tot    0.916  0.000  0.000  0.000  0.916
 
band     6 # energy  -19.65998075 # occ.  1.00000000
 
ion      s      p      d      f    tot
    1  0.000  0.000  0.000  0.000  0.000
    2  0.459  0.000  0.000  0.000  0.459
    3  0.459  0.000  0.000  0.000  0.459
    4  0.000  0.000  0.000  0.000  0.000
    5  0.000  0.000  0.000  0.000  0.000
    6  0.000  0.000  0.000  0.000  0.000
    7  0.000  0.000  0.000  0.000  0.000
    8  0.000  0.000  0.000  0.000  0.000
    9  0.000  0.000  0.000  0.000  0.000
   10  0.000  0.000  0.000  0.000  0.000
tot    0.918  0.000  0.000  0.000  0.918
 
band     7 # energy  -13.31675311 # occ.  1.00000000
 
ion      s      p      d      f    tot
    1  0.004  0.000  0.000  0.000  0.004
    2  0.001  0.000  0.000  0.000  0.001
    3  0.001  0.000  0.000  0.000  0.001
    4  0.002  0.000  0.000  0.000  0.002
    5  0.127  0.000  0.000  0.000  0.127
    6  0.127  0.000  0.000  0.000  0.127
    7  0.127  0.000  0.000  0.000  0.127
    8  0.127  0.000  0.000  0.000  0.127
    9  0.127  0.000  0.000  0.000  0.127
   10  0.127  0.000  0.000  0.000  0.127
tot    0.768  0.000  0.000  0.000  0.768
 
band     8 # energy  -12.93625693 # occ.  1.00000000
 
ion      s      p      d      f    tot
    1  0.000  0.000  0.004  0.000  0.004
    2  0.000  0.000  0.000  0.000  0.000
    3  0.000  0.000  0.000  0.000  0.000
    4  0.000  0.000  0.000  0.000  0.000
    5  0.105  0.000  0.000  0.000  0.105
    6  0.105  0.000  0.000  0.000  0.105
    7  0.034  0.000  0.000  0.000  0.034
    8  0.034  0.000  0.000  0.000  0.034
    9  0.260  0.000  0.000  0.000  0.260
   10  0.260  0.000  0.000  0.000  0.260
tot    0.799  0.000  0.005  0.000  0.804
 
band     9 # energy  -12.93625693 # occ.  1.00000000
 
ion      s      p      d      f    tot
    1  0.000  0.000  0.004  0.000  0.004
    2  0.000  0.000  0.000  0.000  0.000
    3  0.000  0.000  0.000  0.000  0.000
    4  0.000  0.000  0.000  0.000  0.000
    5  0.161  0.000  0.000  0.000  0.161
    6  0.161  0.000  0.000  0.000  0.161
    7  0.232  0.000  0.000  0.000  0.232
    8  0.232  0.000  0.000  0.000  0.232
    9  0.007  0.000  0.000  0.000  0.007
   10  0.007  0.000  0.000  0.000  0.007
tot    0.799  0.000  0.005  0.000  0.804
 
band    10 # energy  -12.93021498 # occ.  1.00000000
 
ion      s      p      d      f    tot
    1  0.000  0.010  0.000  0.001  0.011
    2  0.000  0.000  0.000  0.000  0.000
    3  0.000  0.000  0.000  0.000  0.000
    4  0.000  0.001  0.000  0.000  0.001
    5  0.131  0.000  0.000  0.000  0.131
    6  0.131  0.000  0.000  0.000  0.131
    7  0.129  0.000  0.000  0.000  0.129
    8  0.129  0.000  0.000  0.000  0.129
    9  0.134  0.000  0.000  0.000  0.134
   10  0.134  0.000  0.000  0.000  0.134
tot    0.790  0.011  0.000  0.001  0.802
 
band    11 # energy  -12.93021474 # occ.  1.00000000
 
ion      s      p      d      f    tot
    1  0.000  0.010  0.000  0.001  0.011
    2  0.000  0.000  0.000  0.000  0.000
    3  0.000  0.000  0.000  0.000  0.000
    4  0.000  0.001  0.000  0.000  0.001
    5  0.107  0.000  0.000  0.000  0.107
    6  0.107  0.000  0.000  0.000  0.107
    7  0.034  0.000  0.000  0.000  0.034
    8  0.034  0.000  0.000  0.000  0.034
    9  0.254  0.000  0.000  0.000  0.254
   10  0.254  0.000  0.000  0.000  0.254
tot    0.790  0.011  0.000  0.001  0.802
 
band    12 # energy  -12.93021474 # occ.  1.00000000
 
ion      s      p      d      f    tot
    1  0.000  0.010  0.000  0.001  0.011
    2  0.000  0.000  0.000  0.000  0.000
    3  0.000  0.000  0.000  0.000  0.000
    4  0.000  0.001  0.000  0.000  0.001
    5  0.157  0.000  0.000  0.000  0.157
    6  0.157  0.000  0.000  0.000  0.157
    7  0.231  0.000  0.000  0.000  0.231
    8  0.231  0.000  0.000  0.000  0.231
    9  0.006  0.000  0.000  0.000  0.006
   10  0.006  0.000  0.000  0.000  0.006
tot    0.790  0.011  0.000  0.001  0.802
 
band    13 # energy   -6.62626843 # occ.  1.00000000
 
ion      s      p      d      f    tot
    1  0.000  0.000  0.000  0.000  0.000
    2  0.000  0.369  0.000  0.000  0.369
    3  0.000  0.369  0.000  0.000  0.369
    4  0.000  0.000  0.000  0.000  0.000
    5  0.000  0.002  0.000  0.000  0.002
    6  0.000  0.002  0.000  0.000  0.002
    7  0.000  0.002  0.000  0.000  0.002
    8  0.000  0.002  0.000  0.000  0.002
    9  0.000  0.002  0.000  0.000  0.002
   10  0.000  0.002  0.000  0.000  0.002
tot    0.000  0.750  0.000  0.000  0.750
 
band    14 # energy   -6.62626224 # occ.  1.00000000
 
ion      s      p      d      f    tot
    1  0.000  0.000  0.000  0.000  0.000
    2  0.000  0.369  0.000  0.000  0.369
    3  0.000  0.369  0.000  0.000  0.369
    4  0.000  0.000  0.000  0.000  0.000
    5  0.000  0.001  0.000  0.000  0.001
    6  0.000  0.001  0.000  0.000  0.001
    7  0.000  0.002  0.000  0.000  0.002
    8  0.000  0.002  0.000  0.000  0.002
    9  0.000  0.003  0.000  0.000  0.003
   10  0.000  0.003  0.000  0.000  0.003
tot    0.000  0.750  0.000  0.000  0.750
 
band    15 # energy   -6.62626224 # occ.  1.00000000
 
ion      s      p      d      f    tot
    1  0.000  0.000  0.000  0.000  0.000
    2  0.000  0.369  0.000  0.000  0.369
    3  0.000  0.369  0.000  0.000  0.369
    4  0.000  0.000  0.000  0.000  0.000
    5  0.000  0.003  0.000  0.000  0.003
    6  0.000  0.003  0.000  0.000  0.003
    7  0.000  0.002  0.000  0.000  0.002
    8  0.000  0.002  0.000  0.000  0.002
    9  0.000  0.001  0.000  0.000  0.001
   10  0.000  0.001  0.000  0.000  0.001
tot    0.000  0.750  0.000  0.000  0.750
 
band    16 # energy   -6.52298572 # occ.  1.00000000
 
ion      s      p      d      f    tot
    1  0.000  0.000  0.000  0.000  0.000
    2  0.000  0.381  0.000  0.000  0.381
    3  0.000  0.381  0.000  0.000  0.381
    4  0.000  0.000  0.000  0.000  0.000
    5  0.000  0.001  0.000  0.000  0.001
    6  0.000  0.001  0.000  0.000  0.001
    7  0.000  0.001  0.000  0.000  0.001
    8  0.000  0.001  0.000  0.000  0.001
    9  0.000  0.001  0.000  0.000  0.001
   10  0.000  0.001  0.000  0.000  0.001
tot    0.000  0.770  0.000  0.000  0.770
 
band    17 # energy   -6.52297968 # occ.  1.00000000
 
ion      s      p      d      f    tot
    1  0.000  0.000  0.000  0.000  0.000
    2  0.000  0.381  0.000  0.000  0.381
    3  0.000  0.381  0.000  0.000  0.381
    4  0.000  0.000  0.000  0.000  0.000
    5  0.000  0.001  0.000  0.000  0.001
    6  0.000  0.001  0.000  0.000  0.001
    7  0.000  0.002  0.000  0.000  0.002
    8  0.000  0.002  0.000  0.000  0.002
    9  0.000  0.001  0.000  0.000  0.001
   10  0.000  0.001  0.000  0.000  0.001
tot    0.000  0.770  0.000  0.000  0.770
 
band    18 # energy   -6.52297967 # occ.  1.00000000
 
ion      s      p      d      f    tot
    1  0.000  0.000  0.000  0.000  0.000
    2  0.000  0.381  0.000  0.000  0.381
    3  0.000  0.381  0.000  0.000  0.381
    4  0.000  0.000  0.000  0.000  0.000
    5  0.000  0.001  0.000  0.000  0.001
    6  0.000  0.001  0.000  0.000  0.001
    7  0.000  0.001  0.000  0.000  0.001
    8  0.000  0.001  0.000  0.000  0.001
    9  0.000  0.001  0.000  0.000  0.001
   10  0.000  0.001  0.000  0.000  0.001
tot    0.000  0.770  0.000  0.000  0.770
 
band    19 # energy   -3.25276096 # occ.  1.00000000
 
ion      s      p      d      f    tot
    1  0.043  0.000  0.000  0.000  0.043
    2  0.000  0.000  0.000  0.000  0.000
    3  0.000  0.000  0.000  0.000  0.000
    4  0.021  0.000  0.000  0.000  0.021
    5  0.000  0.081  0.000  0.000  0.081
    6  0.000  0.081  0.000  0.000  0.081
    7  0.000  0.081  0.000  0.000  0.081
    8  0.000  0.081  0.000  0.000  0.081
    9  0.000  0.081  0.000  0.000  0.081
   10  0.000  0.081  0.000  0.000  0.081
tot    0.065  0.483  0.000  0.000  0.548
 
band    20 # energy   -3.18315976 # occ.  1.00000000
 
ion      s      p      d      f    tot
    1  0.000  0.001  0.000  0.956  0.957
    2  0.000  0.000  0.000  0.000  0.000
    3  0.000  0.000  0.000  0.000  0.000
    4  0.000  0.000  0.000  0.000  0.000
    5  0.000  0.004  0.000  0.000  0.004
    6  0.000  0.004  0.000  0.000  0.004
    7  0.000  0.004  0.000  0.000  0.004
    8  0.000  0.004  0.000  0.000  0.004
    9  0.000  0.004  0.000  0.000  0.004
   10  0.000  0.004  0.000  0.000  0.004
tot    0.000  0.024  0.000  0.956  0.981
 
band    21 # energy   -3.18310101 # occ.  1.00000000
 
ion      s      p      d      f    tot
    1  0.000  0.001  0.000  0.956  0.957
    2  0.000  0.000  0.000  0.000  0.000
    3  0.000  0.000  0.000  0.000  0.000
    4  0.000  0.000  0.000  0.000  0.000
    5  0.000  0.006  0.000  0.000  0.006
    6  0.000  0.006  0.000  0.000  0.006
    7  0.000  0.006  0.000  0.000  0.006
    8  0.000  0.006  0.000  0.000  0.006
    9  0.000  0.000  0.000  0.000  0.000
   10  0.000  0.000  0.000  0.000  0.000
tot    0.000  0.024  0.000  0.956  0.981
 
band    22 # energy   -3.18310067 # occ.  1.00000000
 
ion      s      p      d      f    tot
    1  0.000  0.001  0.000  0.956  0.957
    2  0.000  0.000  0.000  0.000  0.000
    3  0.000  0.000  0.000  0.000  0.000
    4  0.000  0.000  0.000  0.000  0.000
    5  0.000  0.002  0.000  0.000  0.002
    6  0.000  0.002  0.000  0.000  0.002
    7  0.000  0.002  0.000  0.000  0.002
    8  0.000  0.002  0.000  0.000  0.002
    9  0.000  0.008  0.000  0.000  0.008
   10  0.000  0.008  0.000  0.000  0.008
tot    0.000  0.024  0.000  0.956  0.981
 
band    23 # energy   -2.73836882 # occ.  1.00000000
 
ion      s      p      d      f    tot
    1  0.000  0.000  0.000  0.977  0.977
    2  0.000  0.000  0.000  0.000  0.000
    3  0.000  0.000  0.000  0.000  0.000
    4  0.000  0.000  0.000  0.000  0.000
    5  0.000  0.001  0.000  0.000  0.001
    6  0.000  0.001  0.000  0.000  0.001
    7  0.000  0.001  0.000  0.000  0.001
    8  0.000  0.001  0.000  0.000  0.001
    9  0.000  0.002  0.000  0.000  0.002
   10  0.000  0.002  0.000  0.000  0.002
tot    0.000  0.009  0.000  0.977  0.986
 
band    24 # energy   -2.73836848 # occ.  1.00000000
 
ion      s      p      d      f    tot
    1  0.000  0.000  0.000  0.977  0.977
    2  0.000  0.000  0.000  0.000  0.000
    3  0.000  0.000  0.000  0.000  0.000
    4  0.000  0.000  0.000  0.000  0.000
    5  0.000  0.002  0.000  0.000  0.002
    6  0.000  0.002  0.000  0.000  0.002
    7  0.000  0.002  0.000  0.000  0.002
    8  0.000  0.002  0.000  0.000  0.002
    9  0.000  0.001  0.000  0.000  0.001
   10  0.000  0.001  0.000  0.000  0.001
tot    0.000  0.009  0.000  0.977  0.986
 
band    25 # energy   -2.73830220 # occ.  1.00000000
 
ion      s      p      d      f    tot
    1  0.000  0.000  0.000  0.977  0.977
    2  0.000  0.000  0.000  0.000  0.000
    3  0.000  0.000  0.000  0.000  0.000
    4  0.000  0.000  0.000  0.000  0.000
    5  0.000  0.001  0.000  0.000  0.001
    6  0.000  0.001  0.000  0.000  0.001
    7  0.000  0.001  0.000  0.000  0.001
    8  0.000  0.001  0.000  0.000  0.001
    9  0.000  0.001  0.000  0.000  0.001
   10  0.000  0.001  0.000  0.000  0.001
tot    0.000  0.009  0.000  0.977  0.986
 
band    26 # energy   -1.98672228 # occ.  1.00000000
 
ion      s      p      d      f    tot
    1  0.000  0.025  0.000  0.016  0.041
    2  0.000  0.011  0.000  0.000  0.011
    3  0.000  0.011  0.000  0.000  0.011
    4  0.000  0.006  0.000  0.000  0.006
    5  0.000  0.103  0.000  0.000  0.103
    6  0.000  0.103  0.000  0.000  0.103
    7  0.000  0.114  0.000  0.000  0.114
    8  0.000  0.114  0.000  0.000  0.114
    9  0.000  0.054  0.000  0.000  0.054
   10  0.000  0.054  0.000  0.000  0.054
tot    0.000  0.594  0.000  0.016  0.611
 
band    27 # energy   -1.98672227 # occ.  1.00000000
 
ion      s      p      d      f    tot
    1  0.000  0.025  0.000  0.016  0.041
    2  0.000  0.011  0.000  0.000  0.011
    3  0.000  0.011  0.000  0.000  0.011
    4  0.000  0.006  0.000  0.000  0.006
    5  0.000  0.077  0.000  0.000  0.077
    6  0.000  0.077  0.000  0.000  0.077
    7  0.000  0.067  0.000  0.000  0.067
    8  0.000  0.067  0.000  0.000  0.067
    9  0.000  0.127  0.000  0.000  0.127
   10  0.000  0.127  0.000  0.000  0.127
tot    0.000  0.594  0.000  0.016  0.611
 
band    28 # energy   -1.98671337 # occ.  1.00000000
 
ion      s      p      d      f    tot
    1  0.000  0.025  0.000  0.016  0.041
    2  0.000  0.011  0.000  0.000  0.011
    3  0.000  0.011  0.000  0.000  0.011
    4  0.000  0.006  0.000  0.000  0.006
    5  0.000  0.090  0.000  0.000  0.090
    6  0.000  0.090  0.000  0.000  0.090
    7  0.000  0.090  0.000  0.000  0.090
    8  0.000  0.090  0.000  0.000  0.090
    9  0.000  0.090  0.000  0.000  0.090
   10  0.000  0.090  0.000  0.000  0.090
tot    0.000  0.594  0.000  0.016  0.611
 
band    29 # energy   -1.93338872 # occ.  1.00000000
 
ion      s      p      d      f    tot
    1  0.000  0.000  0.000  0.993  0.993
    2  0.000  0.000  0.000  0.000  0.000
    3  0.000  0.000  0.000  0.000  0.000
    4  0.000  0.000  0.000  0.000  0.000
    5  0.000  0.000  0.000  0.000  0.000
    6  0.000  0.000  0.000  0.000  0.000
    7  0.000  0.000  0.000  0.000  0.000
    8  0.000  0.000  0.000  0.000  0.000
    9  0.000  0.000  0.000  0.000  0.000
   10  0.000  0.000  0.000  0.000  0.000
tot    0.000  0.000  0.000  0.993  0.993
 
band    30 # energy   -1.83354048 # occ.  1.00000000
 
ion      s      p      d      f    tot
    1  0.000  0.000  0.018  0.000  0.018
    2  0.000  0.028  0.000  0.000  0.028
    3  0.000  0.028  0.000  0.000  0.028
    4  0.000  0.000  0.000  0.000  0.000
    5  0.000  0.081  0.000  0.000  0.081
    6  0.000  0.081  0.000  0.000  0.081
    7  0.000  0.051  0.000  0.000  0.051
    8  0.000  0.051  0.000  0.000  0.051
    9  0.000  0.125  0.000  0.000  0.125
   10  0.000  0.125  0.000  0.000  0.125
tot    0.000  0.571  0.018  0.000  0.590
 
band    31 # energy   -1.83354048 # occ.  1.00000000
 
ion      s      p      d      f    tot
    1  0.000  0.000  0.018  0.000  0.018
    2  0.000  0.028  0.000  0.000  0.028
    3  0.000  0.028  0.000  0.000  0.028
    4  0.000  0.000  0.000  0.000  0.000
    5  0.000  0.091  0.000  0.000  0.091
    6  0.000  0.091  0.000  0.000  0.091
    7  0.000  0.120  0.000  0.000  0.120
    8  0.000  0.120  0.000  0.000  0.120
    9  0.000  0.047  0.000  0.000  0.047
   10  0.000  0.047  0.000  0.000  0.047
tot    0.000  0.571  0.018  0.000  0.590
 
band    32 # energy   -1.83353931 # occ.  1.00000000
 
ion      s      p      d      f    tot
    1  0.000  0.000  0.018  0.000  0.018
    2  0.000  0.028  0.000  0.000  0.028
    3  0.000  0.028  0.000  0.000  0.028
    4  0.000  0.000  0.000  0.000  0.000
    5  0.000  0.086  0.000  0.000  0.086
    6  0.000  0.086  0.000  0.000  0.086
    7  0.000  0.086  0.000  0.000  0.086
    8  0.000  0.086  0.000  0.000  0.086
    9  0.000  0.086  0.000  0.000  0.086
   10  0.000  0.086  0.000  0.000  0.086
tot    0.000  0.571  0.018  0.000  0.590
 
band    33 # energy   -1.82427742 # occ.  1.00000000
 
ion      s      p      d      f    tot
    1  0.000  0.000  0.081  0.000  0.081
    2  0.000  0.000  0.000  0.000  0.000
    3  0.000  0.000  0.000  0.000  0.000
    4  0.000  0.000  0.000  0.000  0.000
    5  0.001  0.112  0.000  0.000  0.113
    6  0.001  0.112  0.000  0.000  0.113
    7  0.001  0.173  0.000  0.000  0.174
    8  0.001  0.173  0.000  0.000  0.174
    9  0.000  0.007  0.000  0.000  0.007
   10  0.000  0.007  0.000  0.000  0.007
tot    0.004  0.583  0.081  0.000  0.668
 
band    34 # energy   -1.82427741 # occ.  1.00000000
 
ion      s      p      d      f    tot
    1  0.000  0.000  0.081  0.000  0.081
    2  0.000  0.000  0.000  0.000  0.000
    3  0.000  0.000  0.000  0.000  0.000
    4  0.000  0.000  0.000  0.000  0.000
    5  0.001  0.083  0.000  0.000  0.083
    6  0.001  0.083  0.000  0.000  0.083
    7  0.000  0.021  0.000  0.000  0.021
    8  0.000  0.021  0.000  0.000  0.021
    9  0.001  0.188  0.000  0.000  0.189
   10  0.001  0.188  0.000  0.000  0.189
tot    0.004  0.583  0.081  0.000  0.668
 
band    35 # energy   -0.96564249 # occ.  1.00000000
 
ion      s      p      d      f    tot
    1  0.000  0.000  0.000  0.018  0.018
    2  0.000  0.000  0.000  0.000  0.000
    3  0.000  0.000  0.000  0.000  0.000
    4  0.000  0.000  0.000  0.000  0.000
    5  0.000  0.081  0.000  0.000  0.081
    6  0.000  0.081  0.000  0.000  0.081
    7  0.000  0.076  0.000  0.000  0.076
    8  0.000  0.076  0.000  0.000  0.076
    9  0.000  0.157  0.000  0.000  0.157
   10  0.000  0.157  0.000  0.000  0.157
tot    0.000  0.627  0.000  0.018  0.645
 
band    36 # energy   -0.96564248 # occ.  1.00000000
 
ion      s      p      d      f    tot
    1  0.000  0.000  0.000  0.018  0.018
    2  0.000  0.000  0.000  0.000  0.000
    3  0.000  0.000  0.000  0.000  0.000
    4  0.000  0.000  0.000  0.000  0.000
    5  0.000  0.128  0.000  0.000  0.128
    6  0.000  0.128  0.000  0.000  0.128
    7  0.000  0.133  0.000  0.000  0.133
    8  0.000  0.133  0.000  0.000  0.133
    9  0.000  0.052  0.000  0.000  0.052
   10  0.000  0.052  0.000  0.000  0.052
tot    0.000  0.627  0.000  0.018  0.645
 
band    37 # energy   -0.96563519 # occ.  1.00000000
 
ion      s      p      d      f    tot
    1  0.000  0.000  0.000  0.018  0.018
    2  0.000  0.000  0.000  0.000  0.000
    3  0.000  0.000  0.000  0.000  0.000
    4  0.000  0.000  0.000  0.000  0.000
    5  0.000  0.104  0.000  0.000  0.104
    6  0.000  0.104  0.000  0.000  0.104
    7  0.000  0.104  0.000  0.000  0.104
    8  0.000  0.104  0.000  0.000  0.104
    9  0.000  0.104  0.000  0.000  0.104
   10  0.000  0.104  0.000  0.000  0.104
tot    0.000  0.627  0.000  0.018  0.645
 
band    38 # energy   -0.59821941 # occ.  1.00000000
 
ion      s      p      d      f    tot
    1  0.000  0.005  0.000  0.026  0.030
    2  0.000  0.005  0.000  0.000  0.005
    3  0.000  0.005  0.000  0.000  0.005
    4  0.000  0.002  0.000  0.000  0.002
    5  0.000  0.111  0.000  0.000  0.111
    6  0.000  0.111  0.000  0.000  0.111
    7  0.000  0.111  0.000  0.000  0.111
    8  0.000  0.111  0.000  0.000  0.111
    9  0.000  0.111  0.000  0.000  0.111
   10  0.000  0.111  0.000  0.000  0.111
tot    0.000  0.681  0.000  0.026  0.706
 
band    39 # energy   -0.59821293 # occ.  1.00000000
 
ion      s      p      d      f    tot
    1  0.000  0.005  0.000  0.026  0.030
    2  0.000  0.005  0.000  0.000  0.005
    3  0.000  0.005  0.000  0.000  0.005
    4  0.000  0.002  0.000  0.000  0.002
    5  0.000  0.117  0.000  0.000  0.117
    6  0.000  0.117  0.000  0.000  0.117
    7  0.000  0.118  0.000  0.000  0.118
    8  0.000  0.118  0.000  0.000  0.118
    9  0.000  0.097  0.000  0.000  0.097
   10  0.000  0.097  0.000  0.000  0.097
tot    0.000  0.681  0.000  0.026  0.706
 
band    40 # energy   -0.59821292 # occ.  1.00000000
 
ion      s      p      d      f    tot
    1  0.000  0.005  0.000  0.026  0.030
    2  0.000  0.005  0.000  0.000  0.005
    3  0.000  0.005  0.000  0.000  0.005
    4  0.000  0.002  0.000  0.000  0.002
    5  0.000  0.104  0.000  0.000  0.104
    6  0.000  0.104  0.000  0.000  0.104
    7  0.000  0.104  0.000  0.000  0.104
    8  0.000  0.104  0.000  0.000  0.104
    9  0.000  0.124  0.000  0.000  0.124
   10  0.000  0.124  0.000  0.000  0.124
tot    0.000  0.681  0.000  0.026  0.706
 
band    41 # energy   -0.46157365 # occ.  1.00000000
 
ion      s      p      d      f    tot
    1  0.000  0.000  0.000  0.000  0.000
    2  0.000  0.000  0.000  0.000  0.000
    3  0.000  0.000  0.000  0.000  0.000
    4  0.000  0.000  0.000  0.000  0.000
    5  0.000  0.153  0.000  0.000  0.153
    6  0.000  0.153  0.000  0.000  0.153
    7  0.000  0.058  0.000  0.000  0.058
    8  0.000  0.058  0.000  0.000  0.058
    9  0.000  0.132  0.000  0.000  0.132
   10  0.000  0.132  0.000  0.000  0.132
tot    0.000  0.686  0.000  0.000  0.686
 
band    42 # energy   -0.46157365 # occ.  1.00000000
 
ion      s      p      d      f    tot
    1  0.000  0.000  0.000  0.000  0.000
    2  0.000  0.000  0.000  0.000  0.000
    3  0.000  0.000  0.000  0.000  0.000
    4  0.000  0.000  0.000  0.000  0.000
    5  0.000  0.076  0.000  0.000  0.076
    6  0.000  0.076  0.000  0.000  0.076
    7  0.000  0.170  0.000  0.000  0.170
    8  0.000  0.170  0.000  0.000  0.170
    9  0.000  0.097  0.000  0.000  0.097
   10  0.000  0.097  0.000  0.000  0.097
tot    0.000  0.686  0.000  0.000  0.686
 
band    43 # energy   -0.46157304 # occ.  1.00000000
 
ion      s      p      d      f    tot
    1  0.000  0.000  0.000  0.000  0.000
    2  0.000  0.000  0.000  0.000  0.000
    3  0.000  0.000  0.000  0.000  0.000
    4  0.000  0.000  0.000  0.000  0.000
    5  0.000  0.114  0.000  0.000  0.114
    6  0.000  0.114  0.000  0.000  0.114
    7  0.000  0.114  0.000  0.000  0.114
    8  0.000  0.114  0.000  0.000  0.114
    9  0.000  0.114  0.000  0.000  0.114
   10  0.000  0.114  0.000  0.000  0.114
tot    0.000  0.686  0.000  0.000  0.686
 
band    44 # energy    4.60765601 # occ.  0.00000000
 
ion      s      p      d      f    tot
    1  0.000  0.000  0.426  0.000  0.426
    2  0.000  0.000  0.008  0.000  0.008
    3  0.000  0.000  0.008  0.000  0.008
    4  0.000  0.000  0.000  0.000  0.000
    5  0.000  0.005  0.000  0.000  0.005
    6  0.000  0.005  0.000  0.000  0.005
    7  0.000  0.005  0.000  0.000  0.005
    8  0.000  0.005  0.000  0.000  0.005
    9  0.000  0.009  0.000  0.000  0.009
   10  0.000  0.009  0.000  0.000  0.009
tot    0.000  0.037  0.442  0.000  0.479
 
band    45 # energy    4.60765602 # occ.  0.00000000
 
ion      s      p      d      f    tot
    1  0.000  0.000  0.426  0.000  0.426
    2  0.000  0.000  0.008  0.000  0.008
    3  0.000  0.000  0.008  0.000  0.008
    4  0.000  0.000  0.000  0.000  0.000
    5  0.000  0.008  0.000  0.000  0.008
    6  0.000  0.008  0.000  0.000  0.008
    7  0.000  0.008  0.000  0.000  0.008
    8  0.000  0.008  0.000  0.000  0.008
    9  0.000  0.003  0.000  0.000  0.003
   10  0.000  0.003  0.000  0.000  0.003
tot    0.000  0.037  0.442  0.000  0.479
 
band    46 # energy    4.60768452 # occ.  0.00000000
 
ion      s      p      d      f    tot
    1  0.000  0.000  0.426  0.000  0.426
    2  0.000  0.000  0.008  0.000  0.008
    3  0.000  0.000  0.008  0.000  0.008
    4  0.000  0.000  0.000  0.000  0.000
    5  0.000  0.006  0.000  0.000  0.006
    6  0.000  0.006  0.000  0.000  0.006
    7  0.000  0.006  0.000  0.000  0.006
    8  0.000  0.006  0.000  0.000  0.006
    9  0.000  0.006  0.000  0.000  0.006
   10  0.000  0.006  0.000  0.000  0.006
tot    0.000  0.037  0.442  0.000  0.479
 
band    47 # energy    4.84837585 # occ.  0.00000000
 
ion      s      p      d      f    tot
    1  0.034  0.000  0.000  0.000  0.034
    2  0.024  0.000  0.000  0.000  0.024
    3  0.024  0.000  0.000  0.000  0.024
    4  0.018  0.000  0.000  0.000  0.018
    5  0.020  0.001  0.000  0.000  0.020
    6  0.020  0.001  0.000  0.000  0.020
    7  0.020  0.001  0.000  0.000  0.020
    8  0.020  0.001  0.000  0.000  0.020
    9  0.020  0.001  0.000  0.000  0.020
   10  0.020  0.001  0.000  0.000  0.020
tot    0.219  0.004  0.000  0.000  0.223
 
band    48 # energy    5.79535465 # occ.  0.00000000
 
ion      s      p      d      f    tot
    1  0.000  0.000  0.001  0.000  0.001
    2  0.000  0.000  0.076  0.000  0.076
    3  0.000  0.000  0.076  0.000  0.076
    4  0.000  0.000  0.000  0.000  0.000
    5  0.003  0.000  0.000  0.000  0.003
    6  0.003  0.000  0.000  0.000  0.003
    7  0.006  0.000  0.000  0.000  0.006
    8  0.006  0.000  0.000  0.000  0.006
    9  0.000  0.000  0.000  0.000  0.000
   10  0.000  0.000  0.000  0.000  0.000
tot    0.019  0.001  0.153  0.000  0.172
 
band    49 # energy    5.79535468 # occ.  0.00000000
 
ion      s      p      d      f    tot
    1  0.000  0.000  0.001  0.000  0.001
    2  0.000  0.000  0.076  0.000  0.076
    3  0.000  0.000  0.076  0.000  0.076
    4  0.000  0.000  0.000  0.000  0.000
    5  0.003  0.000  0.000  0.000  0.003
    6  0.003  0.000  0.000  0.000  0.003
    7  0.000  0.000  0.000  0.000  0.000
    8  0.000  0.000  0.000  0.000  0.000
    9  0.006  0.000  0.000  0.000  0.006
   10  0.006  0.000  0.000  0.000  0.006
tot    0.019  0.001  0.153  0.000  0.172
 
band    50 # energy    6.30980675 # occ.  0.00000000
 
ion      s      p      d      f    tot
    1  0.000  0.019  0.000  0.003  0.022
    2  0.000  0.000  0.073  0.000  0.073
    3  0.000  0.000  0.073  0.000  0.073
    4  0.000  0.007  0.000  0.000  0.007
    5  0.016  0.000  0.000  0.000  0.016
    6  0.016  0.000  0.000  0.000  0.016
    7  0.009  0.000  0.000  0.000  0.009
    8  0.009  0.000  0.000  0.000  0.009
    9  0.001  0.000  0.000  0.000  0.001
   10  0.001  0.000  0.000  0.000  0.001
tot    0.051  0.026  0.146  0.003  0.226
 
band    51 # energy    6.30981549 # occ.  0.00000000
 
ion      s      p      d      f    tot
    1  0.000  0.019  0.000  0.003  0.022
    2  0.000  0.000  0.073  0.000  0.073
    3  0.000  0.000  0.073  0.000  0.073
    4  0.000  0.007  0.000  0.000  0.007
    5  0.009  0.000  0.000  0.000  0.009
    6  0.009  0.000  0.000  0.000  0.009
    7  0.016  0.000  0.000  0.000  0.016
    8  0.016  0.000  0.000  0.000  0.016
    9  0.000  0.000  0.000  0.000  0.000
   10  0.000  0.000  0.000  0.000  0.000
tot    0.051  0.026  0.146  0.003  0.226
 
# of k-points:    1         # of bands:   51         # of ions:   10

 k-point     1 :    0.00000000 0.00000000 0.00000000     weight = 1.00000000

band     1 # energy  -44.04728202 # occ.  1.00000000
 
ion      s      p      d      f    tot
    1  0.991  0.000  0.000  0.000  0.991
    2  0.000  0.000  0.000  0.000  0.000
    3  0.000  0.000  0.000  0.000  0.000
    4  0.000  0.000  0.000  0.000  0.000
    5  0.000  0.000  0.000  0.000  0.000
    6  0.000  0.000  0.000  0.000  0.000
    7  0.000  0.000  0.000  0.000  0.000
    8  0.000  0.000  0.000  0.000  0.000
    9  0.000  0.000  0.000  0.000  0.000
   10  0.000  0.000  0.000  0.000  0.000
tot    0.991  0.000  0.000  0.000  0.992
 
band     2 # energy  -20.40121278 # occ.  1.00000000
 
ion      s      p      d      f    tot
    1  0.000  0.941  0.000  0.000  0.941
    2  0.000  0.000  0.000  0.000  0.000
    3  0.000  0.000  0.000  0.000  0.000
    4  0.000  0.000  0.000  0.000  0.000
    5  0.001  0.000  0.000  0.000  0.001
    6  0.001  0.000  0.000  0.000  0.001
    7  0.001  0.000  0.000  0.000  0.001
    8  0.001  0.000  0.000  0.000  0.001
    9  0.002  0.001  0.000  0.000  0.003
   10  0.002  0.001  0.000  0.000  0.003
tot    0.006  0.943  0.000  0.000  0.950
 
band     3 # energy  -20.40121230 # occ.  1.00000000
 
ion      s      p      d      f    tot
    1  0.000  0.941  0.000  0.000  0.941
    2  0.000  0.000  0.000  0.000  0.000
    3  0.000  0.000  0.000  0.000  0.000
    4  0.000  0.000  0.000  0.000  0.000
    5  0.002  0.000  0.000  0.000  0.002
    6  0.002  0.000  0.000  0.000  0.002
    7  0.002  0.000  0.000  0.000  0.002
    8  0.002  0.000  0.000  0.000  0.002
    9  0.000  0.000  0.000  0.000  0.000
   10  0.000  0.000  0.000  0.000  0.000
tot    0.006  0.943  0.000  0.000  0.950
 
band     4 # energy  -20.40113669 # occ.  1.00000000
 
ion      s      p      d      f    tot
    1  0.000  0.941  0.000  0.000  0.941