<?xml version="1.0" encoding="ISO-8859-1"?>
<modeling>
 <generator>
  <i name="program" type="string">vasp </i>
  <i name="version" type="string">6.4.2  </i>
  <i name="subversion" type="string">20Jul23 (build Feb  3 2025 11:36:47) gamma-only                       parallel </i>
  <i name="platform" type="string">LinuxNV_CrayMPICH </i>
  <i name="date" type="string">2025 03 13 </i>
  <i name="time" type="string">16:26:57 </i>
 </generator>
 <incar>
  <i type="string" name="SYSTEM">vasp</i>
  <i type="int" name="ISTART">     0</i>
  <i type="string" name="PREC">Accurate</i>
  <i type="int" name="ISPIN">     2</i>
  <i name="AMIX">      0.35000000</i>
  <i name="AMIX_MAG">      0.70000000</i>
  <i type="int" name="ICHARG">     2</i>
  <i type="int" name="NELM">   500</i>
  <i type="int" name="NELMDL">    -8</i>
  <i name="EDIFF">      0.00000001</i>
  <i name="ENCUT">    400.00000000</i>
  <i name="NUPDOWN">      5.00000000</i>
  <v name="MAGMOM">      5.00000000      0.00000000      0.00000000      0.00000000      0.00000000      0.00000000      0.00000000      0.00000000      0.00000000      0.00000000</v>
  <i type="logical" name="LREAL"> F  </i>
  <i type="int" name="ISMEAR">     0</i>
  <i name="SIGMA">      0.05000000</i>
  <i type="int" name="LMAXMIX">     6</i>
  <i type="logical" name="LWAVE"> T  </i>
  <i type="logical" name="LCHARG"> T  </i>
  <i type="int" name="LORBIT">    10</i>
  <i type="logical" name="LASPH"> T  </i>
  <i type="logical" name="GGA_COMPAT"> F  </i>
  <i type="logical" name="LAECHG"> T  </i>
  <i type="string" name="GGA">PE</i>
 </incar>
 <primitive_cell>
  <structure name="primitive_cell" >
   <crystal>
    <varray name="basis" >
     <v>       0.00000000       5.37150000       5.37150000 </v>
     <v>       5.37150000       0.00000000       5.37150000 </v>
     <v>       5.37150000       5.37150000       0.00000000 </v>
    </varray>
    <i name="volume">    309.96791060 </i>
    <varray name="rec_basis" >
     <v>      -0.09308387       0.09308387       0.09308387 </v>
     <v>       0.09308387      -0.09308387       0.09308387 </v>
     <v>       0.09308387       0.09308387      -0.09308387 </v>
    </varray>
   </crystal>
   <varray name="positions" >
    <v>       0.50000000       0.50000000       0.50000000 </v>
    <v>       0.25000000       0.25000000       0.25000000 </v>
    <v>       0.75000000       0.75000000       0.75000000 </v>
    <v>       0.00000000       0.00000000       0.00000000 </v>
    <v>       0.24643954       0.75356046       0.75356046 </v>
    <v>       0.75356046       0.24643954       0.24643954 </v>
    <v>       0.75356046       0.24643954       0.75356046 </v>
    <v>       0.24643954       0.75356046       0.24643954 </v>
    <v>       0.75356046       0.75356046       0.24643954 </v>
    <v>       0.24643954       0.24643954       0.75356046 </v>
   </varray>
  </structure>
  <varray name="primitive_index" >
   <v type="int" >        1 </v>
   <v type="int" >        2 </v>
   <v type="int" >        3 </v>
   <v type="int" >        4 </v>
   <v type="int" >        5 </v>
   <v type="int" >        6 </v>
   <v type="int" >        7 </v>
   <v type="int" >        8 </v>
   <v type="int" >        9 </v>
   <v type="int" >       10 </v>
  </varray>
 </primitive_cell>
 <kpoints>
  <generation param="Gamma">
   <v type="int" name="divisions">       1        1        1 </v>
   <v name="usershift">      0.00000000       0.00000000       0.00000000 </v>
   <v name="genvec1">      1.00000000       0.00000000       0.00000000 </v>
   <v name="genvec2">      0.00000000       1.00000000      -0.00000000 </v>
   <v name="genvec3">     -0.00000000      -0.00000000       1.00000000 </v>
   <v name="shift">      0.00000000       0.00000000       0.00000000 </v>
  </generation>
  <varray name="kpointlist" >
   <v>       0.00000000       0.00000000       0.00000000 </v>
  </varray>
  <varray name="weights" >
   <v>       1.00000000 </v>
  </varray>
 </kpoints>
 <parameters>
  <separator name="general" >
   <i type="string" name="SYSTEM">vasp</i>
   <i type="logical" name="LCOMPAT"> F  </i>
  </separator>
  <separator name="electronic" >
   <i type="string" name="PREC">accura</i>
   <i name="ENMAX">    400.00000000</i>
   <i name="ENAUG">    678.95600000</i>
   <i name="EDIFF">      0.00000001</i>
   <i type="int" name="IALGO">    38</i>
   <i type="int" name="IWAVPR">    10</i>
   <i type="int" name="NBANDS">    51</i>
   <i type="int" name="NBANDSLOW">    -1</i>
   <i type="int" name="NBANDSHIGH">    -1</i>
   <i name="NELECT">     81.00000000</i>
   <i type="int" name="TURBO">     0</i>
   <i type="int" name="IRESTART">     0</i>
   <i type="int" name="NREBOOT">     0</i>
   <i type="int" name="NMIN">     0</i>
   <i name="EREF">      0.00000000</i>
   <separator name="electronic smearing" >
    <i type="int" name="ISMEAR">     0</i>
    <i name="SIGMA">      0.05000000</i>
    <i name="KSPACING">      0.50000000</i>
    <i type="logical" name="KGAMMA"> T  </i>
    <i type="logical" name="KBLOWUP"> T  </i>
   </separator>
   <separator name="electronic projectors" >
    <i type="logical" name="LREAL"> F  </i>
    <v name="ROPT">      0.00000000      0.00000000      0.00000000      0.00000000</v>
    <i type="int" name="LMAXPAW">  -100</i>
    <i type="int" name="LMAXMIX">     6</i>
    <i type="logical" name="NLSPLINE"> F  </i>
   </separator>
   <separator name="electronic startup" >
    <i type="int" name="ISTART">     0</i>
    <i type="int" name="ICHARG">     2</i>
    <i type="int" name="INIWAV">     1</i>
   </separator>
   <separator name="electronic spin" >
    <i type="int" name="ISPIN">     2</i>
    <i type="logical" name="LNONCOLLINEAR"> F  </i>
    <v name="MAGMOM">      5.00000000      0.00000000      0.00000000      0.00000000      0.00000000      0.00000000      0.00000000      0.00000000      0.00000000      0.00000000</v>
    <i name="NUPDOWN">      5.00000000</i>
    <i type="logical" name="LSORBIT"> F  </i>
    <v name="SAXIS">      0.00000000      0.00000000      1.00000000</v>
    <i type="logical" name="LSPIRAL"> F  </i>
    <v name="QSPIRAL">      0.00000000      0.00000000      0.00000000</v>
    <i type="logical" name="LZEROZ"> F  </i>
   </separator>
   <separator name="electronic exchange-correlation" >
    <i type="logical" name="LASPH"> T  </i>
    <i type="logical" name="LMETAGGA"> F  </i>
   </separator>
   <separator name="electronic convergence" >
    <i type="int" name="NELM">   500</i>
    <i type="int" name="NELMDL">    -8</i>
    <i type="int" name="NELMIN">     2</i>
    <i name="ENINI">    400.00000000</i>
    <separator name="electronic convergence detail" >
     <i type="logical" name="LDIAG"> T  </i>
     <i type="logical" name="LSUBROT"> F  </i>
     <i name="WEIMIN">      0.00000000</i>
     <i name="EBREAK">      0.00000000</i>
     <i name="DEPER">      0.30000000</i>
     <i type="int" name="NRMM">     4</i>
     <i name="TIME">      0.40000000</i>
    </separator>
   </separator>
   <separator name="electronic mixer" >
    <i name="AMIX">      0.35000000</i>
    <i name="BMIX">      1.00000000</i>
    <i name="AMIN">      0.10000000</i>
    <i name="AMIX_MAG">      0.70000000</i>
    <i name="BMIX_MAG">      1.00000000</i>
    <separator name="electronic mixer details" >
     <i type="int" name="IMIX">     4</i>
     <i type="logical" name="MIXFIRST"> F  </i>
     <i type="int" name="MAXMIX">   -45</i>
     <i name="WC">    100.00000000</i>
     <i type="int" name="INIMIX">     1</i>
     <i type="int" name="MIXPRE">     1</i>
     <i type="int" name="MREMOVE">     5</i>
    </separator>
   </separator>
   <separator name="electronic dipolcorrection" >
    <i type="logical" name="LDIPOL"> F  </i>
    <i type="logical" name="LMONO"> F  </i>
    <i type="int" name="IDIPOL">     0</i>
    <i name="EPSILON">      1.00000000</i>
    <v name="DIPOL">   -100.00000000   -100.00000000   -100.00000000</v>
    <i name="EFIELD">      0.00000000</i>
   </separator>
  </separator>
  <separator name="grids" >
   <i type="int" name="NGX">    50</i>
   <i type="int" name="NGY">    50</i>
   <i type="int" name="NGZ">    50</i>
   <i type="int" name="NGXF">   100</i>
   <i type="int" name="NGYF">   100</i>
   <i type="int" name="NGZF">   100</i>
   <i type="logical" name="ADDGRID"> F  </i>
  </separator>
  <separator name="ionic" >
   <i type="int" name="NSW">     0</i>
   <i type="int" name="IBRION">    -1</i>
   <i type="int" name="MDALGO">     0</i>
   <i type="int" name="ISIF">     2</i>
   <i name="PSTRESS">      0.00000000</i>
   <i name="EDIFFG">      0.00000010</i>
   <i type="int" name="NFREE">     0</i>
   <i name="POTIM">      0.50000000</i>
   <i name="SMASS">     -3.00000000</i>
   <i name="SCALEE">      1.00000000</i>
  </separator>
  <separator name="ionic md" >
   <i name="TEBEG">      0.00010000</i>
   <i name="TEEND">      0.00010000</i>
   <i type="int" name="NBLOCK">     1</i>
   <i type="int" name="KBLOCK">     1</i>
   <i type="int" name="NPACO">   256</i>
   <i name="APACO">     10.00000000</i>
  </separator>
  <separator name="symmetry" >
   <i type="int" name="ISYM">     2</i>
   <i name="SYMPREC">      0.00001000</i>
  </separator>
  <separator name="dos" >
   <i type="int" name="LORBIT">    10</i>
   <v name="RWIGS">     -1.00000000     -1.00000000     -1.00000000     -1.00000000</v>
   <i type="int" name="NEDOS">   301</i>
   <i name="EMIN">     10.00000000</i>
   <i name="EMAX">    -10.00000000</i>
   <i name="EFERMI">      0.00000000</i>
  </separator>
  <separator name="writing" >
   <i type="int" name="NWRITE">     2</i>
   <i type="logical" name="LWAVE"> T  </i>
   <i type="logical" name="LDOWNSAMPLE"> F  </i>
   <i type="logical" name="LCHARG"> T  </i>
   <i type="logical" name="LPARD"> F  </i>
   <i type="logical" name="LVTOT"> F  </i>
   <i type="logical" name="LVHAR"> F  </i>
   <i type="logical" name="LELF"> F  </i>
   <i type="logical" name="LOPTICS"> F  </i>
   <v name="STM">      0.00000000      0.00000000      0.00000000      0.00000000      0.00000000      0.00000000      0.00000000</v>
  </separator>
  <separator name="performance" >
   <i type="int" name="NPAR">     1</i>
   <i type="int" name="NSIM">     4</i>
   <i type="int" name="NBLK">    -1</i>
   <i type="logical" name="LPLANE"> T  </i>
   <i type="logical" name="LSCALAPACK"> T  </i>
   <i type="logical" name="LSCAAWARE"> F  </i>
   <i type="logical" name="LSCALU"> F  </i>
   <i type="logical" name="LASYNC"> F  </i>
   <i type="logical" name="LORBITALREAL"> F  </i>
  </separator>
  <separator name="miscellaneous" >
   <i type="int" name="IDIOT">     3</i>
   <i type="int" name="PHON_NSTRUCT">    -1</i>
   <i type="logical" name="LMUSIC"> F  </i>
   <v name="POMASS">    162.50000000    132.90000000     22.99000000     35.45300000</v>
   <v name="DARWINR">      0.00000000      0.00000000      0.00000000      0.00000000</v>
   <v name="DARWINV">      1.00000000      1.00000000      1.00000000      1.00000000</v>
   <i type="logical" name="LCORR"> T  </i>
  </separator>
  <i type="logical" name="GGA_COMPAT"> F  </i>
  <i type="logical" name="LBERRY"> F  </i>
  <i type="int" name="ICORELEVEL">     0</i>
  <i type="logical" name="LDAU"> F  </i>
  <i type="int" name="I_CONSTRAINED_M">     0</i>
  <separator name="electronic exchange-correlation" >
   <i type="string" name="GGA">PE</i>
   <i type="int" name="VOSKOWN">     0</i>
   <i type="logical" name="LHFCALC"> F  </i>
   <i type="string" name="PRECFOCK"></i>
   <i type="logical" name="LSYMGRAD"> F  </i>
   <i type="logical" name="LHFONE"> F  </i>
   <i type="logical" name="LRHFCALC"> F  </i>
   <i type="logical" name="LTHOMAS"> F  </i>
   <i type="logical" name="LMODELHF"> F  </i>
   <i type="logical" name="LFOCKACE"> F  </i>
   <i name="ENCUT4O">     -1.00000000</i>
   <i type="int" name="EXXOEP">     0</i>
   <i type="int" name="FOURORBIT">     0</i>
   <i name="AEXX">      0.00000000</i>
   <i name="HFALPHA">      0.00000000</i>
   <i name="MCALPHA">      0.00000000</i>
   <i name="ALDAX">      1.00000000</i>
   <i name="AGGAX">      1.00000000</i>
   <i name="ALDAC">      1.00000000</i>
   <i name="AGGAC">      1.00000000</i>
   <i type="int" name="NKREDX">     1</i>
   <i type="int" name="NKREDY">     1</i>
   <i type="int" name="NKREDZ">     1</i>
   <i type="logical" name="SHIFTRED"> F  </i>
   <i type="logical" name="ODDONLY"> F  </i>
   <i type="logical" name="EVENONLY"> F  </i>
   <i type="int" name="LMAXFOCK">     0</i>
   <i type="int" name="NMAXFOCKAE">     0</i>
   <i type="logical" name="LFOCKAEDFT"> F  </i>
   <i name="HFSCREEN">      0.00000000</i>
   <i name="HFSCREENC">      0.00000000</i>
   <i type="int" name="NBANDSGWLOW">     0</i>
  </separator>
  <separator name="vdW DFT" >
   <i type="logical" name="LUSE_VDW"> F  </i>
   <i type="int" name="IVDW_NL">     1</i>
   <i type="logical" name="LSPIN_VDW"> F  </i>
   <i name="Zab_VDW">     -0.84910000</i>
   <i name="PARAM1">      0.12340000</i>
   <i name="PARAM2">      1.00000000</i>
   <i name="PARAM3">      0.00000000</i>
  </separator>
  <separator name="model GW" >
   <i type="int" name="MODEL_GW">     0</i>
   <i name="MODEL_EPS0">     18.59807464</i>
   <i name="MODEL_ALPHA">      1.00000000</i>
  </separator>
  <separator name="linear response parameters" >
   <i type="logical" name="LEPSILON"> F  </i>
   <i type="logical" name="LRPA"> F  </i>
   <i type="logical" name="LNABLA"> F  </i>
   <i type="logical" name="LVEL"> F  </i>
   <i name="CSHIFT">      0.10000000</i>
   <i name="OMEGAMAX">     -1.00000000</i>
   <i name="DEG_THRESHOLD">      0.00200000</i>
   <i name="RTIME">     -0.10000000</i>
   <i name="WPLASMAI">      0.00000000</i>
   <v name="DFIELD">      0.00000000      0.00000000      0.00000000</v>
   <v name="WPLASMA">      0.00000000      0.00000000      0.00000000      0.00000000      0.00000000      0.00000000      0.00000000      0.00000000      0.00000000</v>
  </separator>
  <separator name="orbital magnetization" >
   <i type="logical" name="NUCIND"> F  </i>
   <v name="MAGPOS">      0.00000000      0.00000000      0.00000000</v>
   <i type="logical" name="LNICSALL"> T  </i>
   <i type="logical" name="ORBITALMAG"> F  </i>
   <i type="logical" name="LMAGBLOCH"> F  </i>
   <i type="logical" name="LCHIMAG"> F  </i>
   <i type="logical" name="LGAUGE"> T  </i>
   <i type="int" name="MAGATOM">     0</i>
   <v name="MAGDIPOL">      0.00000000      0.00000000      0.00000000</v>
   <v name="AVECCONST">      0.00000000      0.00000000      0.00000000</v>
  </separator>
  <separator name="response functions" >
   <i type="logical" name="LALL_IN_ONE"> F  </i>
   <i type="int" name="IALL_IN_ONE">    -1</i>
   <i type="int" name="NBANDS_WAVE">    -1</i>
   <i type="logical" name="LFINITE_TEMPERATURE"> F  </i>
   <i type="logical" name="LADDER"> F  </i>
   <i type="logical" name="LRPAFORCE"> F  </i>
   <i type="logical" name="LFXC"> F  </i>
   <i type="logical" name="LHARTREE"> T  </i>
   <i type="int" name="IBSE">     0</i>
   <v type="int" name="KPOINT">    -1     0     0     0</v>
   <i type="logical" name="LTCTC"> F  </i>
   <i type="logical" name="LTCTE"> F  </i>
   <i type="logical" name="LTETE"> F  </i>
   <i type="logical" name="LTRIPLET"> F  </i>
   <i type="logical" name="LFXCEPS"> F  </i>
   <i type="logical" name="LFXHEG"> F  </i>
   <i type="int" name="NATURALO">     2</i>
   <i type="logical" name="LHOLEGF"> F  </i>
   <i type="logical" name="L2ORDER"> F  </i>
   <i type="logical" name="LDMP1"> F  </i>
   <i type="logical" name="LMP2LT"> F  </i>
   <i type="logical" name="LSMP2LT"> F  </i>
   <i type="logical" name="LGWLF"> F  </i>
   <i name="ENCUTGW">     -1.60000002</i>
   <i name="ENCUTGWSOFT">     -1.60000002</i>
   <i name="ENCUTLF">     -1.00000000</i>
   <i type="logical" name="LESF_SPLINES"> F  </i>
   <i type="int" name="LMAXMP2">    -1</i>
   <i name="SCISSOR">      0.00000000</i>
   <i type="int" name="NOMEGA">     0</i>
   <i type="int" name="NOMEGAR">     0</i>
   <i type="int" name="NBANDSGW">    -1</i>
   <i type="int" name="NBANDSO">    -1</i>
   <i type="int" name="NBANDSV">    -1</i>
   <i type="int" name="NELMGW">     1</i>
   <i type="int" name="NELMHF">     1</i>
   <i type="int" name="DIM">     3</i>
   <i type="int" name="IESPILON">     4</i>
   <i type="int" name="ANTIRES">     0</i>
   <i name="OMEGAMAX">    -30.00000000</i>
   <i name="OMEGAMIN">    -30.00000000</i>
   <i name="OMEGATL">   -200.00000000</i>
   <i type="int" name="OMEGAGRID">     0</i>
   <i name="CSHIFT">     -0.10000000</i>
   <i type="logical" name="LSELFENERGY"> F  </i>
   <i type="logical" name="LSPECTRAL"> F  </i>
   <i type="logical" name="LSPECTRALGW"> F  </i>
   <i type="logical" name="LSINGLES"> F  </i>
   <i type="logical" name="LFERMIGW"> F  </i>
   <i type="logical" name="ODDONLYGW"> F  </i>
   <i type="logical" name="EVENONLYGW"> F  </i>
   <i type="int" name="NKREDLFX">     1</i>
   <i type="int" name="NKREDLFY">     1</i>
   <i type="int" name="NKREDLFZ">     1</i>
   <i type="int" name="MAXMEM">  2800</i>
   <i type="int" name="TELESCOPE">     0</i>
   <i type="int" name="NTAUPAR">    -1</i>
   <i type="int" name="NOMEGAPAR">    -1</i>
   <i name="DAMP_NEWTON">      0.80000001</i>
   <i name="LAMBDA">      1.00000000</i>
  </separator>
  <separator name="External order field" >
   <i name="OFIELD_KAPPA">      0.00000000</i>
   <v name="OFIELD_K">      0.00000000      0.00000000      0.00000000</v>
   <i name="OFIELD_Q6_NEAR">      0.00000000</i>
   <i name="OFIELD_Q6_FAR">      0.00000000</i>
   <i name="OFIELD_A">      0.00000000</i>
  </separator>
  <separator name="optional k-points parameters" >
   <i type="int" name="KPOINTS_OPT_MODE">     1</i>
   <i type="logical" name="LKPOINTS_OPT"> F  </i>
  </separator>
  <separator name="solvation model" >
   <i type="logical" name="LSOL"> F  </i>
  </separator>
 </parameters>
 <atominfo>
  <atoms>      10 </atoms>
  <types>       4 </types>
  <array name="atoms" >
   <dimension dim="1">ion</dimension>
   <field type="string">element</field>
   <field type="int">atomtype</field>
   <set>
    <rc><c>Dy</c><c>   1</c></rc>
    <rc><c>Cs</c><c>   2</c></rc>
    <rc><c>Cs</c><c>   2</c></rc>
    <rc><c>Na</c><c>   3</c></rc>
    <rc><c>Cl</c><c>   4</c></rc>
    <rc><c>Cl</c><c>   4</c></rc>
    <rc><c>Cl</c><c>   4</c></rc>
    <rc><c>Cl</c><c>   4</c></rc>
    <rc><c>Cl</c><c>   4</c></rc>
    <rc><c>Cl</c><c>   4</c></rc>
   </set>
  </array>
  <array name="atomtypes" >
   <dimension dim="1">type</dimension>
   <field type="int">atomspertype</field>
   <field type="string">element</field>
   <field>mass</field>
   <field>valence</field>
   <field type="string">pseudopotential</field>
   <set>
    <rc><c>   1</c><c>Dy</c><c>    162.50000000</c><c>     20.00000000</c><c>  PAW_PBE Dy 25May2022                  </c></rc>
    <rc><c>   2</c><c>Cs</c><c>    132.90000000</c><c>      9.00000000</c><c>  PAW_PBE Cs_sv 25Jan2019               </c></rc>
    <rc><c>   1</c><c>Na</c><c>     22.99000000</c><c>      1.00000000</c><c>  PAW_PBE Na 08Apr2002                  </c></rc>
    <rc><c>   6</c><c>Cl</c><c>     35.45300000</c><c>      7.00000000</c><c>  PAW_PBE Cl 06Sep2000                  </c></rc>
   </set>
  </array>
 </atominfo>
 <structure name="initialpos" >
  <crystal>
   <varray name="basis" >
    <v>       0.00000000       5.37150000       5.37150000 </v>
    <v>       5.37150000       0.00000000       5.37150000 </v>
    <v>       5.37150000       5.37150000       0.00000000 </v>
   </varray>
   <i name="volume">    309.96791060 </i>
   <varray name="rec_basis" >
    <v>      -0.09308387       0.09308387       0.09308387 </v>
    <v>       0.09308387      -0.09308387       0.09308387 </v>
    <v>       0.09308387       0.09308387      -0.09308387 </v>
   </varray>
  </crystal>
  <varray name="positions" >
   <v>       0.50000000       0.50000000       0.50000000 </v>
   <v>       0.25000000       0.25000000       0.25000000 </v>
   <v>       0.75000000       0.75000000       0.75000000 </v>
   <v>       0.00000000       0.00000000       0.00000000 </v>
   <v>       0.24643954       0.75356046       0.75356046 </v>
   <v>       0.75356046       0.24643954       0.24643954 </v>
   <v>       0.75356046       0.24643954       0.75356046 </v>
   <v>       0.24643954       0.75356046       0.24643954 </v>
   <v>       0.75356046       0.75356046       0.24643954 </v>
   <v>       0.24643954       0.24643954       0.75356046 </v>
  </varray>
 </structure>
 <calculation>
  <scstep>
   <time name="dav">    0.63    0.63</time>
   <time name="total">    4.33    4.40</time>
   <energy>
    <i name="alphaZ">    234.82269063 </i>
    <i name="ewald">  -4610.03387808 </i>
    <i name="hartreedc">  -2645.26745990 </i>
    <i name="XCdc">     88.48829591 </i>
    <i name="pawpsdc">   6384.18485969 </i>
    <i name="pawaedc">  -6530.61817521 </i>
    <i name="eentropy">     -0.00000000 </i>
    <i name="bandstr">    311.46880493 </i>
    <i name="atom">   7647.64820692 </i>
    <i name="e_fr_energy">    880.69334489 </i>
    <i name="e_wo_entrp">    880.69334489 </i>
    <i name="e_0_energy">    880.69334489 </i>
   </energy>
  </scstep>
  <scstep>
   <time name="dav">    0.20    0.20</time>
   <time name="total">    0.20    0.20</time>
   <energy>
    <i name="e_fr_energy">    166.88230232 </i>
    <i name="e_wo_entrp">    166.88230232 </i>
    <i name="e_0_energy">    166.88230232 </i>
   </energy>
  </scstep>
  <scstep>
   <time name="dav">    0.18    0.18</time>
   <time name="total">    0.18    0.18</time>
   <energy>
    <i name="e_fr_energy">    -20.01313069 </i>
    <i name="e_wo_entrp">    -19.96321520 </i>
    <i name="e_0_energy">    -19.98817295 </i>
   </energy>
  </scstep>
  <scstep>
   <time name="dav">    0.19    0.19</time>
   <time name="total">    0.19    0.19</time>
   <energy>
    <i name="e_fr_energy">    -38.90997543 </i>
    <i name="e_wo_entrp">    -38.86280242 </i>
    <i name="e_0_energy">    -38.88638892 </i>
   </energy>
  </scstep>
  <scstep>
   <time name="dav">    0.22    0.22</time>
   <time name="total">    0.22    0.22</time>
   <energy>
    <i name="e_fr_energy">    -40.89295749 </i>
    <i name="e_wo_entrp">    -40.81486064 </i>
    <i name="e_0_energy">    -40.85390907 </i>
   </energy>
  </scstep>
  <scstep>
   <time name="dav">    0.23    0.23</time>
   <time name="total">    0.23    0.23</time>
   <energy>
    <i name="e_fr_energy">    -41.02895723 </i>
    <i name="e_wo_entrp">    -40.95035374 </i>
    <i name="e_0_energy">    -40.98965549 </i>
   </energy>
  </scstep>
  <scstep>
   <time name="dav">    0.19    0.20</time>
   <time name="total">    0.19    0.20</time>
   <energy>
    <i name="e_fr_energy">    -41.03754972 </i>
    <i name="e_wo_entrp">    -40.95934703 </i>
    <i name="e_0_energy">    -40.99844838 </i>
   </energy>
  </scstep>
  <scstep>
   <time name="dav">    0.22    0.22</time>
   <time name="total">    0.33    0.33</time>
   <energy>
    <i name="e_fr_energy">    -41.03800196 </i>
    <i name="e_wo_entrp">    -40.95980297 </i>
    <i name="e_0_energy">    -40.99890246 </i>
   </energy>
  </scstep>
  <scstep>
   <time name="dav">    0.21    0.21</time>
   <time name="total">    3.96    3.98</time>
   <energy>
    <i name="e_fr_energy">    -39.79169968 </i>
    <i name="e_wo_entrp">    -39.74151138 </i>
    <i name="e_0_energy">    -39.76660553 </i>
   </energy>
  </scstep>
  <scstep>
   <time name="dav">    0.23    0.24</time>
   <time name="total">    4.00    4.04</time>
   <energy>
    <i name="e_fr_energy">    -39.66593473 </i>
    <i name="e_wo_entrp">    -39.61653337 </i>
    <i name="e_0_energy">    -39.64123405 </i>
   </energy>
  </scstep>
  <scstep>
   <time name="dav">    0.28    0.29</time>
   <time name="total">    4.75    4.80</time>
   <energy>
    <i name="e_fr_energy">    -39.62117170 </i>
    <i name="e_wo_entrp">    -39.58252475 </i>
    <i name="e_0_energy">    -39.60184823 </i>
   </energy>
  </scstep>
  <scstep>
   <time name="dav">    0.30    0.30</time>
   <time name="total">    4.34    4.37</time>
   <energy>
    <i name="e_fr_energy">    -39.89165250 </i>
    <i name="e_wo_entrp">    -39.85309444 </i>
    <i name="e_0_energy">    -39.87237347 </i>
   </energy>
  </scstep>
  <scstep>
   <time name="dav">    0.24    0.24</time>
   <time name="total">    4.06    4.07</time>
   <energy>
    <i name="e_fr_energy">    -39.64137578 </i>
    <i name="e_wo_entrp">    -39.60282178 </i>
    <i name="e_0_energy">    -39.62209878 </i>
   </energy>
  </scstep>
  <scstep>
   <time name="dav">    0.25    0.25</time>
   <time name="total">    3.95    3.96</time>
   <energy>
    <i name="e_fr_energy">    -39.77567045 </i>
    <i name="e_wo_entrp">    -39.73710873 </i>
    <i name="e_0_energy">    -39.75638959 </i>
   </energy>
  </scstep>
  <scstep>
   <time name="dav">    0.26    0.26</time>
   <time name="total">    4.01    4.02</time>
   <energy>
    <i name="e_fr_energy">    -39.75596428 </i>
    <i name="e_wo_entrp">    -39.71576259 </i>
    <i name="e_0_energy">    -39.73586344 </i>
   </energy>
  </scstep>
  <scstep>
   <time name="dav">    0.27    0.27</time>
   <time name="total">    4.00    4.02</time>
   <energy>
    <i name="e_fr_energy">    -39.67790662 </i>
    <i name="e_wo_entrp">    -39.63920807 </i>
    <i name="e_0_energy">    -39.65855734 </i>
   </energy>
  </scstep>
  <scstep>
   <time name="dav">    0.29    0.29</time>
   <time name="total">    4.05    4.09</time>
   <energy>
    <i name="e_fr_energy">    -39.68871138 </i>
    <i name="e_wo_entrp">    -39.64995525 </i>
    <i name="e_0_energy">    -39.66933331 </i>
   </energy>
  </scstep>
  <scstep>
   <time name="dav">    0.26    0.27</time>
   <time name="total">    4.04    4.08</time>
   <energy>
    <i name="e_fr_energy">    -39.68770820 </i>
    <i name="e_wo_entrp">    -39.64892729 </i>
    <i name="e_0_energy">    -39.66831775 </i>
   </energy>
  </scstep>
  <scstep>
   <time name="dav">    0.21    0.21</time>
   <time name="total">    3.93    3.94</time>
   <energy>
    <i name="e_fr_energy">    -39.68725692 </i>
    <i name="e_wo_entrp">    -39.64786724 </i>
    <i name="e_0_energy">    -39.66756208 </i>
   </energy>
  </scstep>
  <scstep>
   <time name="dav">    0.26    0.27</time>
   <time name="total">    4.00    4.03</time>
   <energy>
    <i name="e_fr_energy">    -39.68808184 </i>
    <i name="e_wo_entrp">    -39.64817412 </i>
    <i name="e_0_energy">    -39.66812798 </i>
   </energy>
  </scstep>
  <scstep>
   <time name="dav">    0.26    0.26</time>
   <time name="total">    4.00    4.01</time>
   <energy>
    <i name="e_fr_energy">    -39.68890115 </i>
    <i name="e_wo_entrp">    -39.64656165 </i>
    <i name="e_0_energy">    -39.66773140 </i>
   </energy>
  </scstep>
  <scstep>
   <time name="dav">    0.29    0.29</time>
   <time name="total">    4.21    4.24</time>
   <energy>
    <i name="e_fr_energy">    -39.69084459 </i>
    <i name="e_wo_entrp">    -39.64327516 </i>
    <i name="e_0_energy">    -39.66705987 </i>
   </energy>
  </scstep>
  <scstep>
   <time name="dav">    0.26    0.26</time>
   <time name="total">    4.28    4.33</time>
   <energy>
    <i name="e_fr_energy">    -39.68608333 </i>
    <i name="e_wo_entrp">    -39.64203359 </i>
    <i name="e_0_energy">    -39.66405846 </i>
   </energy>
  </scstep>
  <scstep>
   <time name="dav">    0.24    0.24</time>
   <time name="total">    3.99    4.02</time>
   <energy>
    <i name="e_fr_energy">    -39.68727899 </i>
    <i name="e_wo_entrp">    -39.64467695 </i>
    <i name="e_0_energy">    -39.66597797 </i>
   </energy>
  </scstep>
  <scstep>
   <time name="dav">    0.23    0.23</time>
   <time name="total">    3.97    3.98</time>
   <energy>
    <i name="e_fr_energy">    -39.68739154 </i>
    <i name="e_wo_entrp">    -39.64665684 </i>
    <i name="e_0_energy">    -39.66702419 </i>
   </energy>
  </scstep>
  <scstep>
   <time name="dav">    0.24    0.24</time>
   <time name="total">    3.98    4.01</time>
   <energy>
    <i name="e_fr_energy">    -39.68774016 </i>
    <i name="e_wo_entrp">    -39.64775615 </i>
    <i name="e_0_energy">    -39.66774815 </i>
   </energy>
  </scstep>
  <scstep>
   <time name="dav">    0.28    0.28</time>
   <time name="total">    4.04    4.08</time>
   <energy>
    <i name="e_fr_energy">    -39.68797165 </i>
    <i name="e_wo_entrp">    -39.64811352 </i>
    <i name="e_0_energy">    -39.66804258 </i>
   </energy>
  </scstep>
  <scstep>
   <time name="dav">    0.25    0.25</time>
   <time name="total">    4.04    4.08</time>
   <energy>
    <i name="e_fr_energy">    -39.68804535 </i>
    <i name="e_wo_entrp">    -39.64819463 </i>
    <i name="e_0_energy">    -39.66811999 </i>
   </energy>
  </scstep>
  <scstep>
   <time name="dav">    0.23    0.24</time>
   <time name="total">    3.99    4.03</time>
   <energy>
    <i name="e_fr_energy">    -39.68802987 </i>
    <i name="e_wo_entrp">    -39.64821090 </i>
    <i name="e_0_energy">    -39.66812039 </i>
   </energy>
  </scstep>
  <scstep>
   <time name="dav">    0.24    0.24</time>
   <time name="total">    3.96    3.98</time>
   <energy>
    <i name="e_fr_energy">    -39.68810300 </i>
    <i name="e_wo_entrp">    -39.64817912 </i>
    <i name="e_0_energy">    -39.66814106 </i>
   </energy>
  </scstep>
  <scstep>
   <time name="dav">    0.22    0.22</time>
   <time name="total">    3.97    4.00</time>
   <energy>
    <i name="e_fr_energy">    -39.68715121 </i>
    <i name="e_wo_entrp">    -39.64808600 </i>
    <i name="e_0_energy">    -39.66761860 </i>
   </energy>
  </scstep>
  <scstep>
   <time name="dav">    0.29    0.29</time>
   <time name="total">    4.22    4.24</time>
   <energy>
    <i name="e_fr_energy">    -39.68715065 </i>
    <i name="e_wo_entrp">    -39.64817915 </i>
    <i name="e_0_energy">    -39.66766490 </i>
   </energy>
  </scstep>
  <scstep>
   <time name="dav">    0.23    0.23</time>
   <time name="total">    4.22    4.25</time>
   <energy>
    <i name="e_fr_energy">    -39.68740813 </i>
    <i name="e_wo_entrp">    -39.64834136 </i>
    <i name="e_0_energy">    -39.66787475 </i>
   </energy>
  </scstep>
  <scstep>
   <time name="dav">    0.23    0.24</time>
   <time name="total">    4.15    4.18</time>
   <energy>
    <i name="e_fr_energy">    -39.68799486 </i>
    <i name="e_wo_entrp">    -39.64844284 </i>
    <i name="e_0_energy">    -39.66821885 </i>
   </energy>
  </scstep>
  <scstep>
   <time name="dav">    0.22    0.22</time>
   <time name="total">    4.15    4.16</time>
   <energy>
    <i name="e_fr_energy">    -39.68955044 </i>
    <i name="e_wo_entrp">    -39.64549300 </i>
    <i name="e_0_energy">    -39.66752172 </i>
   </energy>
  </scstep>
  <scstep>
   <time name="dav">    0.22    0.22</time>
   <time name="total">    3.97    4.01</time>
   <energy>
    <i name="e_fr_energy">    -39.68757962 </i>
    <i name="e_wo_entrp">    -39.64631194 </i>
    <i name="e_0_energy">    -39.66694578 </i>
   </energy>
  </scstep>
  <scstep>
   <time name="dav">    0.20    0.20</time>
   <time name="total">    3.90    3.91</time>
   <energy>
    <i name="e_fr_energy">    -39.68762688 </i>
    <i name="e_wo_entrp">    -39.64750780 </i>
    <i name="e_0_energy">    -39.66756734 </i>
   </energy>
  </scstep>
  <scstep>
   <time name="dav">    0.26    0.26</time>
   <time name="total">    3.96    3.96</time>
   <energy>
    <i name="e_fr_energy">    -39.68722249 </i>
    <i name="e_wo_entrp">    -39.64797083 </i>
    <i name="e_0_energy">    -39.66759666 </i>
   </energy>
  </scstep>
  <scstep>
   <time name="dav">    0.24    0.24</time>
   <time name="total">    3.98    3.99</time>
   <energy>
    <i name="e_fr_energy">    -39.68654413 </i>
    <i name="e_wo_entrp">    -39.64771426 </i>
    <i name="e_0_energy">    -39.66712919 </i>
   </energy>
  </scstep>
  <scstep>
   <time name="dav">    0.25    0.25</time>
   <time name="total">    4.03    4.08</time>
   <energy>
    <i name="e_fr_energy">    -39.68740150 </i>
    <i name="e_wo_entrp">    -39.64832301 </i>
    <i name="e_0_energy">    -39.66786225 </i>
   </energy>
  </scstep>
  <scstep>
   <time name="dav">    0.26    0.26</time>
   <time name="total">    3.99    4.03</time>
   <energy>
    <i name="e_fr_energy">    -39.68757269 </i>
    <i name="e_wo_entrp">    -39.64838145 </i>
    <i name="e_0_energy">    -39.66797707 </i>
   </energy>
  </scstep>
  <scstep>
   <time name="dav">    0.23    0.24</time>
   <time name="total">    4.03    4.06</time>
   <energy>
    <i name="e_fr_energy">    -39.68787842 </i>
    <i name="e_wo_entrp">    -39.64841553 </i>
    <i name="e_0_energy">    -39.66814697 </i>
   </energy>
  </scstep>
  <scstep>
   <time name="dav">    0.23    0.23</time>
   <time name="total">    4.31    4.35</time>
   <energy>
    <i name="e_fr_energy">    -39.68852198 </i>
    <i name="e_wo_entrp">    -39.64794168 </i>
    <i name="e_0_energy">    -39.66823183 </i>
   </energy>
  </scstep>
  <scstep>
   <time name="dav">    0.28    0.29</time>
   <time name="total">    4.15    4.20</time>
   <energy>
    <i name="e_fr_energy">    -39.68872170 </i>
    <i name="e_wo_entrp">    -39.64728377 </i>
    <i name="e_0_energy">    -39.66800274 </i>
   </energy>
  </scstep>
  <scstep>
   <time name="dav">    0.21    0.22</time>
   <time name="total">    4.31    4.36</time>
   <energy>
    <i name="e_fr_energy">    -39.68791697 </i>
    <i name="e_wo_entrp">    -39.64768422 </i>
    <i name="e_0_energy">    -39.66780059 </i>
   </energy>
  </scstep>
  <scstep>
   <time name="dav">    0.22    0.22</time>
   <time name="total">    4.69    4.75</time>
   <energy>
    <i name="e_fr_energy">    -39.68657963 </i>
    <i name="e_wo_entrp">    -39.64764258 </i>
    <i name="e_0_energy">    -39.66711111 </i>
   </energy>
  </scstep>
  <scstep>
   <time name="dav">    0.29    0.30</time>
   <time name="total">    4.02    4.06</time>
   <energy>
    <i name="e_fr_energy">    -39.68640007 </i>
    <i name="e_wo_entrp">    -39.64762531 </i>
    <i name="e_0_energy">    -39.66701269 </i>
   </energy>
  </scstep>
  <scstep>
   <time name="dav">    0.24    0.24</time>
   <time name="total">    5.13    5.26</time>
   <energy>
    <i name="e_fr_energy">    -39.68476911 </i>
    <i name="e_wo_entrp">    -39.64615704 </i>
    <i name="e_0_energy">    -39.66546308 </i>
   </energy>
  </scstep>
  <scstep>
   <time name="dav">    0.22    0.22</time>
   <time name="total">    4.10    4.17</time>
   <energy>
    <i name="e_fr_energy">    -39.68590399 </i>
    <i name="e_wo_entrp">    -39.64722722 </i>
    <i name="e_0_energy">    -39.66656561 </i>
   </energy>
  </scstep>
  <scstep>
   <time name="dav">    0.23    0.23</time>
   <time name="total">    3.95    3.95</time>
   <energy>
    <i name="e_fr_energy">    -39.68754381 </i>
    <i name="e_wo_entrp">    -39.64842907 </i>
    <i name="e_0_energy">    -39.66798644 </i>
   </energy>
  </scstep>
  <scstep>
   <time name="dav">    0.22    0.22</time>
   <time name="total">    3.98    3.99</time>
   <energy>
    <i name="e_fr_energy">    -39.68877229 </i>
    <i name="e_wo_entrp">    -39.64756553 </i>
    <i name="e_0_energy">    -39.66816891 </i>
   </energy>
  </scstep>
  <scstep>
   <time name="dav">    0.23    0.24</time>
   <time name="total">    4.22    4.28</time>
   <energy>
    <i name="e_fr_energy">    -39.69154424 </i>
    <i name="e_wo_entrp">    -39.64288796 </i>
    <i name="e_0_energy">    -39.66721610 </i>
   </energy>
  </scstep>
  <scstep>
   <time name="dav">    0.26    0.26</time>
   <time name="total">    4.64    4.70</time>
   <energy>
    <i name="e_fr_energy">    -39.69782162 </i>
    <i name="e_wo_entrp">    -39.64485256 </i>
    <i name="e_0_energy">    -39.67133709 </i>
   </energy>
  </scstep>
  <scstep>
   <time name="dav">    0.20    0.21</time>
   <time name="total">    3.99    4.03</time>
   <energy>
    <i name="e_fr_energy">    -39.68797874 </i>
    <i name="e_wo_entrp">    -39.63503137 </i>
    <i name="e_0_energy">    -39.66150505 </i>
   </energy>
  </scstep>
  <scstep>
   <time name="dav">    0.24    0.24</time>
   <time name="total">    3.96    3.97</time>
   <energy>
    <i name="e_fr_energy">    -39.69229327 </i>
    <i name="e_wo_entrp">    -39.64110512 </i>
    <i name="e_0_energy">    -39.66669919 </i>
   </energy>
  </scstep>
  <scstep>
   <time name="dav">    0.22    0.22</time>
   <time name="total">    3.97    3.98</time>
   <energy>
    <i name="e_fr_energy">    -39.68573702 </i>
    <i name="e_wo_entrp">    -39.63533827 </i>
    <i name="e_0_energy">    -39.66053765 </i>
   </energy>
  </scstep>
  <scstep>
   <time name="dav">    0.26    0.26</time>
   <time name="total">    4.04    4.07</time>
   <energy>
    <i name="e_fr_energy">    -39.67867140 </i>
    <i name="e_wo_entrp">    -39.62738425 </i>
    <i name="e_0_energy">    -39.65302782 </i>
   </energy>
  </scstep>
  <scstep>
   <time name="dav">    0.22    0.22</time>
   <time name="total">    4.00    4.03</time>
   <energy>
    <i name="e_fr_energy">    -39.69196050 </i>
    <i name="e_wo_entrp">    -39.64421927 </i>
    <i name="e_0_energy">    -39.66808989 </i>
   </energy>
  </scstep>
  <scstep>
   <time name="dav">    0.21    0.21</time>
   <time name="total">    4.22    4.27</time>
   <energy>
    <i name="e_fr_energy">    -39.67999825 </i>
    <i name="e_wo_entrp">    -39.63066045 </i>
    <i name="e_0_energy">    -39.65532935 </i>
   </energy>
  </scstep>
  <scstep>
   <time name="dav">    0.27    0.27</time>
   <time name="total">    4.15    4.16</time>
   <energy>
    <i name="e_fr_energy">    -39.67239469 </i>
    <i name="e_wo_entrp">    -39.62057851 </i>
    <i name="e_0_energy">    -39.64648660 </i>
   </energy>
  </scstep>
  <scstep>
   <time name="dav">    0.24    0.24</time>
   <time name="total">    3.98    3.99</time>
   <energy>
    <i name="e_fr_energy">    -39.67030764 </i>
    <i name="e_wo_entrp">    -39.61735871 </i>
    <i name="e_0_energy">    -39.64383318 </i>
   </energy>
  </scstep>
  <scstep>
   <time name="dav">    0.26    0.26</time>
   <time name="total">    4.30    4.30</time>
   <energy>
    <i name="e_fr_energy">    -39.67132632 </i>
    <i name="e_wo_entrp">    -39.62011509 </i>
    <i name="e_0_energy">    -39.64572070 </i>
   </energy>
  </scstep>
  <scstep>
   <time name="dav">    0.21    0.22</time>
   <time name="total">    4.18    4.20</time>
   <energy>
    <i name="e_fr_energy">    -39.67952553 </i>
    <i name="e_wo_entrp">    -39.63011743 </i>
    <i name="e_0_energy">    -39.65482148 </i>
   </energy>
  </scstep>
  <scstep>
   <time name="dav">    0.22    0.22</time>
   <time name="total">    3.99    4.01</time>
   <energy>
    <i name="e_fr_energy">    -39.67925915 </i>
    <i name="e_wo_entrp">    -39.63717983 </i>
    <i name="e_0_energy">    -39.65821949 </i>
   </energy>
  </scstep>
  <scstep>
   <time name="dav">    0.21    0.21</time>
   <time name="total">    4.42    4.45</time>
   <energy>
    <i name="e_fr_energy">    -39.68818530 </i>
    <i name="e_wo_entrp">    -39.64456749 </i>
    <i name="e_0_energy">    -39.66637640 </i>
   </energy>
  </scstep>
  <scstep>
   <time name="dav">    0.26    0.26</time>
   <time name="total">    4.03    4.07</time>
   <energy>
    <i name="e_fr_energy">    -39.69017818 </i>
    <i name="e_wo_entrp">    -39.64329744 </i>
    <i name="e_0_energy">    -39.66673781 </i>
   </energy>
  </scstep>
  <scstep>
   <time name="dav">    0.21    0.21</time>
   <time name="total">    3.97    3.98</time>
   <energy>
    <i name="e_fr_energy">    -39.68658835 </i>
    <i name="e_wo_entrp">    -39.64263797 </i>
    <i name="e_0_energy">    -39.66461316 </i>
   </energy>
  </scstep>
  <scstep>
   <time name="dav">    0.28    0.29</time>
   <time name="total">    4.35    4.37</time>
   <energy>
    <i name="e_fr_energy">    -39.68554697 </i>
    <i name="e_wo_entrp">    -39.64568423 </i>
    <i name="e_0_energy">    -39.66561560 </i>
   </energy>
  </scstep>
  <scstep>
   <time name="dav">    0.22    0.22</time>
   <time name="total">    4.06    4.08</time>
   <energy>
    <i name="e_fr_energy">    -39.68749331 </i>
    <i name="e_wo_entrp">    -39.64788577 </i>
    <i name="e_0_energy">    -39.66768954 </i>
   </energy>
  </scstep>
  <scstep>
   <time name="dav">    0.23    0.23</time>
   <time name="total">    3.98    3.99</time>
   <energy>
    <i name="e_fr_energy">    -39.68810373 </i>
    <i name="e_wo_entrp">    -39.64815343 </i>
    <i name="e_0_energy">    -39.66812858 </i>
   </energy>
  </scstep>
  <scstep>
   <time name="dav">    0.22    0.22</time>
   <time name="total">    3.96    3.97</time>
   <energy>
    <i name="e_fr_energy">    -39.68874197 </i>
    <i name="e_wo_entrp">    -39.64739060 </i>
    <i name="e_0_energy">    -39.66806628 </i>
   </energy>
  </scstep>
  <scstep>
   <time name="dav">    0.25    0.25</time>
   <time name="total">    4.37    4.42</time>
   <energy>
    <i name="e_fr_energy">    -39.68883615 </i>
    <i name="e_wo_entrp">    -39.64670349 </i>
    <i name="e_0_energy">    -39.66776982 </i>
   </energy>
  </scstep>
  <scstep>
   <time name="dav">    0.25    0.25</time>
   <time name="total">    4.20    4.22</time>
   <energy>
    <i name="e_fr_energy">    -39.68869103 </i>
    <i name="e_wo_entrp">    -39.64636941 </i>
    <i name="e_0_energy">    -39.66753022 </i>
   </energy>
  </scstep>
  <scstep>
   <time name="dav">    0.23    0.24</time>
   <time name="total">    4.43    4.45</time>
   <energy>
    <i name="e_fr_energy">    -39.68831880 </i>
    <i name="e_wo_entrp">    -39.64659572 </i>
    <i name="e_0_energy">    -39.66745726 </i>
   </energy>
  </scstep>
  <scstep>
   <time name="dav">    0.22    0.22</time>
   <time name="total">    3.97    4.00</time>
   <energy>
    <i name="e_fr_energy">    -39.68778396 </i>
    <i name="e_wo_entrp">    -39.64737673 </i>
    <i name="e_0_energy">    -39.66758035 </i>
   </energy>
  </scstep>
  <scstep>
   <time name="dav">    0.24    0.24</time>
   <time name="total">    3.98    3.99</time>
   <energy>
    <i name="e_fr_energy">    -39.68792787 </i>
    <i name="e_wo_entrp">    -39.64791769 </i>
    <i name="e_0_energy">    -39.66792278 </i>
   </energy>
  </scstep>
  <scstep>
   <time name="dav">    0.23    0.23</time>
   <time name="total">    4.04    4.11</time>
   <energy>
    <i name="e_fr_energy">    -39.68801156 </i>
    <i name="e_wo_entrp">    -39.64810509 </i>
    <i name="e_0_energy">    -39.66805832 </i>
   </energy>
  </scstep>
  <scstep>
   <time name="dav">    0.20    0.20</time>
   <time name="total">    4.00    4.02</time>
   <energy>
    <i name="e_fr_energy">    -39.68843495 </i>
    <i name="e_wo_entrp">    -39.64785473 </i>
    <i name="e_0_energy">    -39.66814484 </i>
   </energy>
  </scstep>
  <scstep>
   <time name="dav">    0.26    0.26</time>
   <time name="total">    4.07    4.10</time>
   <energy>
    <i name="e_fr_energy">    -39.68855454 </i>
    <i name="e_wo_entrp">    -39.64748114 </i>
    <i name="e_0_energy">    -39.66801784 </i>
   </energy>
  </scstep>
  <scstep>
   <time name="dav">    0.23    0.23</time>
   <time name="total">    3.97    3.99</time>
   <energy>
    <i name="e_fr_energy">    -39.68848278 </i>
    <i name="e_wo_entrp">    -39.64731827 </i>
    <i name="e_0_energy">    -39.66790052 </i>
   </energy>
  </scstep>
  <scstep>
   <time name="dav">    0.21    0.22</time>
   <time name="total">    3.96    3.97</time>
   <energy>
    <i name="e_fr_energy">    -39.68833436 </i>
    <i name="e_wo_entrp">    -39.64739436 </i>
    <i name="e_0_energy">    -39.66786436 </i>
   </energy>
  </scstep>
  <scstep>
   <time name="dav">    0.21    0.21</time>
   <time name="total">    3.97    4.01</time>
   <energy>
    <i name="e_fr_energy">    -39.68815359 </i>
    <i name="e_wo_entrp">    -39.64764769 </i>
    <i name="e_0_energy">    -39.66790064 </i>
   </energy>
  </scstep>
  <scstep>
   <time name="dav">    0.22    0.22</time>
   <time name="total">    4.01    4.05</time>
   <energy>
    <i name="e_fr_energy">    -39.68787135 </i>
    <i name="e_wo_entrp">    -39.64798031 </i>
    <i name="e_0_energy">    -39.66792583 </i>
   </energy>
  </scstep>
  <scstep>
   <time name="dav">    0.23    0.23</time>
   <time name="total">    4.04    4.10</time>
   <energy>
    <i name="e_fr_energy">    -39.68810198 </i>
    <i name="e_wo_entrp">    -39.64810321 </i>
    <i name="e_0_energy">    -39.66810260 </i>
   </energy>
  </scstep>
  <scstep>
   <time name="dav">    0.22    0.22</time>
   <time name="total">    4.00    4.06</time>
   <energy>
    <i name="e_fr_energy">    -39.68788731 </i>
    <i name="e_wo_entrp">    -39.64818999 </i>
    <i name="e_0_energy">    -39.66803865 </i>
   </energy>
  </scstep>
  <scstep>
   <time name="dav">    0.27    0.27</time>
   <time name="total">    4.05    4.11</time>
   <energy>
    <i name="e_fr_energy">    -39.68785578 </i>
    <i name="e_wo_entrp">    -39.64826729 </i>
    <i name="e_0_energy">    -39.66806153 </i>
   </energy>
  </scstep>
  <scstep>
   <time name="dav">    0.23    0.23</time>
   <time name="total">    4.73    4.83</time>
   <energy>
    <i name="e_fr_energy">    -39.68790399 </i>
    <i name="e_wo_entrp">    -39.64829883 </i>
    <i name="e_0_energy">    -39.66810141 </i>
   </energy>
  </scstep>
  <scstep>
   <time name="dav">    0.22    0.23</time>
   <time name="total">    4.46    4.51</time>
   <energy>
    <i name="e_fr_energy">    -39.68786037 </i>
    <i name="e_wo_entrp">    -39.64830739 </i>
    <i name="e_0_energy">    -39.66808388 </i>
   </energy>
  </scstep>
  <scstep>
   <time name="dav">    0.21    0.21</time>
   <time name="total">    3.93    3.95</time>
   <energy>
    <i name="e_fr_energy">    -39.68793772 </i>
    <i name="e_wo_entrp">    -39.64830908 </i>
    <i name="e_0_energy">    -39.66812340 </i>
   </energy>
  </scstep>
  <scstep>
   <time name="dav">    0.20    0.20</time>
   <time name="total">    3.94    3.96</time>
   <energy>
    <i name="e_fr_energy">    -39.68788577 </i>
    <i name="e_wo_entrp">    -39.64830321 </i>
    <i name="e_0_energy">    -39.66809449 </i>
   </energy>
  </scstep>
  <scstep>
   <time name="dav">    0.19    0.19</time>
   <time name="total">    3.98    4.00</time>
   <energy>
    <i name="e_fr_energy">    -39.68786907 </i>
    <i name="e_wo_entrp">    -39.64831200 </i>
    <i name="e_0_energy">    -39.66809053 </i>
   </energy>
  </scstep>
  <scstep>
   <time name="dav">    0.16    0.16</time>
   <time name="total">    3.95    4.01</time>
   <energy>
    <i name="e_fr_energy">    -39.68786984 </i>
    <i name="e_wo_entrp">    -39.64831846 </i>
    <i name="e_0_energy">    -39.66809415 </i>
   </energy>
  </scstep>
  <scstep>
   <time name="dav">    0.22    0.22</time>
   <time name="total">    4.01    4.06</time>
   <energy>
    <i name="e_fr_energy">    -39.68781562 </i>
    <i name="e_wo_entrp">    -39.64832347 </i>
    <i name="e_0_energy">    -39.66806955 </i>
   </energy>
  </scstep>
  <scstep>
   <time name="dav">    0.20    0.20</time>
   <time name="total">    4.00    4.06</time>
   <energy>
    <i name="e_fr_energy">    -39.68799703 </i>
    <i name="e_wo_entrp">    -39.64831175 </i>
    <i name="e_0_energy">    -39.66815439 </i>
   </energy>
  </scstep>
  <scstep>
   <time name="dav">    0.20    0.20</time>
   <time name="total">    3.96    3.98</time>
   <energy>
    <i name="e_fr_energy">    -39.68775665 </i>
    <i name="e_wo_entrp">    -39.64829945 </i>
    <i name="e_0_energy">    -39.66802805 </i>
   </energy>
  </scstep>
  <scstep>
   <time name="dav">    0.22    0.23</time>
   <time name="total">    3.98    4.01</time>
   <energy>
    <i name="e_fr_energy">    -39.68752764 </i>
    <i name="e_wo_entrp">    -39.64829183 </i>
    <i name="e_0_energy">    -39.66790974 </i>
   </energy>
  </scstep>
  <scstep>
   <time name="dav">    0.27    0.27</time>
   <time name="total">    4.04    4.08</time>
   <energy>
    <i name="e_fr_energy">    -39.68743403 </i>
    <i name="e_wo_entrp">    -39.64829497 </i>
    <i name="e_0_energy">    -39.66786450 </i>
   </energy>
  </scstep>
  <scstep>
   <time name="dav">    0.23    0.23</time>
   <time name="total">    4.58    4.59</time>
   <energy>
    <i name="e_fr_energy">    -39.68726845 </i>
    <i name="e_wo_entrp">    -39.64823509 </i>
    <i name="e_0_energy">    -39.66775177 </i>
   </energy>
  </scstep>
  <scstep>
   <time name="dav">    0.21    0.21</time>
   <time name="total">    4.21    4.23</time>
   <energy>
    <i name="e_fr_energy">    -39.68681953 </i>
    <i name="e_wo_entrp">    -39.64796334 </i>
    <i name="e_0_energy">    -39.66739144 </i>
   </energy>
  </scstep>
  <scstep>
   <time name="dav">    0.21    0.22</time>
   <time name="total">    3.99    4.04</time>
   <energy>
    <i name="e_fr_energy">    -39.68685006 </i>
    <i name="e_wo_entrp">    -39.64799948 </i>
    <i name="e_0_energy">    -39.66742477 </i>
   </energy>
  </scstep>
  <scstep>
   <time name="dav">    0.24    0.25</time>
   <time name="total">    4.43    4.50</time>
   <energy>
    <i name="e_fr_energy">    -39.68684971 </i>
    <i name="e_wo_entrp">    -39.64800235 </i>
    <i name="e_0_energy">    -39.66742603 </i>
   </energy>
  </scstep>
  <scstep>
   <time name="dav">    0.22    0.22</time>
   <time name="total">    4.00    4.04</time>
   <energy>
    <i name="e_fr_energy">    -39.68702945 </i>
    <i name="e_wo_entrp">    -39.64812866 </i>
    <i name="e_0_energy">    -39.66757906 </i>
   </energy>
  </scstep>
  <scstep>
   <time name="dav">    0.27    0.28</time>
   <time name="total">    4.16    4.24</time>
   <energy>
    <i name="e_fr_energy">    -39.68710444 </i>
    <i name="e_wo_entrp">    -39.64817342 </i>
    <i name="e_0_energy">    -39.66763893 </i>
   </energy>
  </scstep>
  <scstep>
   <time name="dav">    0.24    0.24</time>
   <time name="total">    4.41    4.44</time>
   <energy>
    <i name="e_fr_energy">    -39.68617837 </i>
    <i name="e_wo_entrp">    -39.64745883 </i>
    <i name="e_0_energy">    -39.66681860 </i>
   </energy>
  </scstep>
  <scstep>
   <time name="dav">    0.21    0.21</time>
   <time name="total">    4.35    4.38</time>
   <energy>
    <i name="e_fr_energy">    -39.68710420 </i>
    <i name="e_wo_entrp">    -39.64818744 </i>
    <i name="e_0_energy">    -39.66764582 </i>
   </energy>
  </scstep>
  <scstep>
   <time name="dav">    0.21    0.22</time>
   <time name="total">    4.11    4.20</time>
   <energy>
    <i name="e_fr_energy">    -39.68789266 </i>
    <i name="e_wo_entrp">    -39.64846960 </i>
    <i name="e_0_energy">    -39.66818113 </i>
   </energy>
  </scstep>
  <scstep>
   <time name="dav">    0.31    0.32</time>
   <time name="total">    4.76    4.87</time>
   <energy>
    <i name="e_fr_energy">    -39.68811507 </i>
    <i name="e_wo_entrp">    -39.64832541 </i>
    <i name="e_0_energy">    -39.66822024 </i>
   </energy>
  </scstep>
  <scstep>
   <time name="dav">    0.23    0.23</time>
   <time name="total">    4.15    4.19</time>
   <energy>
    <i name="e_fr_energy">    -39.68862400 </i>
    <i name="e_wo_entrp">    -39.64768735 </i>
    <i name="e_0_energy">    -39.66815567 </i>
   </energy>
  </scstep>
  <scstep>
   <time name="dav">    0.22    0.23</time>
   <time name="total">    4.01    4.08</time>
   <energy>
    <i name="e_fr_energy">    -39.68962071 </i>
    <i name="e_wo_entrp">    -39.64533826 </i>
    <i name="e_0_energy">    -39.66747949 </i>
   </energy>
  </scstep>
  <scstep>
   <time name="dav">    0.25    0.26</time>
   <time name="total">    4.28    4.40</time>
   <energy>
    <i name="e_fr_energy">    -39.68974369 </i>
    <i name="e_wo_entrp">    -39.64370010 </i>
    <i name="e_0_energy">    -39.66672190 </i>
   </energy>
  </scstep>
  <scstep>
   <time name="dav">    0.24    0.24</time>
   <time name="total">    4.60    4.74</time>
   <energy>
    <i name="e_fr_energy">    -39.68949081 </i>
    <i name="e_wo_entrp">    -39.64199944 </i>
    <i name="e_0_energy">    -39.66574512 </i>
   </energy>
  </scstep>
  <scstep>
   <time name="dav">    0.26    0.27</time>
   <time name="total">    4.99    5.14</time>
   <energy>
    <i name="e_fr_energy">    -39.68869260 </i>
    <i name="e_wo_entrp">    -39.64033769 </i>
    <i name="e_0_energy">    -39.66451515 </i>
   </energy>
  </scstep>
  <scstep>
   <time name="dav">    0.22    0.22</time>
   <time name="total">    4.31    4.37</time>
   <energy>
    <i name="e_fr_energy">    -39.68730063 </i>
    <i name="e_wo_entrp">    -39.63905235 </i>
    <i name="e_0_energy">    -39.66317649 </i>
   </energy>
  </scstep>
  <scstep>
   <time name="dav">    0.27    0.27</time>
   <time name="total">    4.11    4.13</time>
   <energy>
    <i name="e_fr_energy">    -39.68698033 </i>
    <i name="e_wo_entrp">    -39.63893255 </i>
    <i name="e_0_energy">    -39.66295644 </i>
   </energy>
  </scstep>
  <scstep>
   <time name="dav">    0.21    0.21</time>
   <time name="total">    4.06    4.11</time>
   <energy>
    <i name="e_fr_energy">    -39.68784252 </i>
    <i name="e_wo_entrp">    -39.63909055 </i>
    <i name="e_0_energy">    -39.66346654 </i>
   </energy>
  </scstep>
  <scstep>
   <time name="dav">    0.23    0.23</time>
   <time name="total">    3.99    4.02</time>
   <energy>
    <i name="e_fr_energy">    -39.68726146 </i>
    <i name="e_wo_entrp">    -39.63826806 </i>
    <i name="e_0_energy">    -39.66276476 </i>
   </energy>
  </scstep>
  <scstep>
   <time name="dav">    0.23    0.23</time>
   <time name="total">    4.00    4.04</time>
   <energy>
    <i name="e_fr_energy">    -39.68732333 </i>
    <i name="e_wo_entrp">    -39.63782054 </i>
    <i name="e_0_energy">    -39.66257193 </i>
   </energy>
  </scstep>
  <scstep>
   <time name="dav">    0.22    0.22</time>
   <time name="total">    3.99    4.03</time>
   <energy>
    <i name="e_fr_energy">    -39.68626919 </i>
    <i name="e_wo_entrp">    -39.63695220 </i>
    <i name="e_0_energy">    -39.66161069 </i>
   </energy>
  </scstep>
  <scstep>
   <time name="dav">    0.22    0.22</time>
   <time name="total">    3.97    4.00</time>
   <energy>
    <i name="e_fr_energy">    -39.68397529 </i>
    <i name="e_wo_entrp">    -39.63729527 </i>
    <i name="e_0_energy">    -39.66063528 </i>
   </energy>
  </scstep>
  <scstep>
   <time name="dav">    0.22    0.22</time>
   <time name="total">    3.95    3.96</time>
   <energy>
    <i name="e_fr_energy">    -39.68655477 </i>
    <i name="e_wo_entrp">    -39.64079241 </i>
    <i name="e_0_energy">    -39.66367359 </i>
   </energy>
  </scstep>
  <scstep>
   <time name="dav">    0.22    0.22</time>
   <time name="total">    3.97    3.98</time>
   <energy>
    <i name="e_fr_energy">    -39.68722201 </i>
    <i name="e_wo_entrp">    -39.64259805 </i>
    <i name="e_0_energy">    -39.66491003 </i>
   </energy>
  </scstep>
  <scstep>
   <time name="dav">    0.21    0.21</time>
   <time name="total">    3.96    3.97</time>
   <energy>
    <i name="e_fr_energy">    -39.68738050 </i>
    <i name="e_wo_entrp">    -39.64433452 </i>
    <i name="e_0_energy">    -39.66585751 </i>
   </energy>
  </scstep>
  <scstep>
   <time name="dav">    0.22    0.22</time>
   <time name="total">    4.03    4.06</time>
   <energy>
    <i name="e_fr_energy">    -39.68821047 </i>
    <i name="e_wo_entrp">    -39.64551382 </i>
    <i name="e_0_energy">    -39.66686215 </i>
   </energy>
  </scstep>
  <scstep>
   <time name="dav">    0.25    0.25</time>
   <time name="total">    3.99    4.00</time>
   <energy>
    <i name="e_fr_energy">    -39.68766570 </i>
    <i name="e_wo_entrp">    -39.64664636 </i>
    <i name="e_0_energy">    -39.66715603 </i>
   </energy>
  </scstep>
  <scstep>
   <time name="dav">    0.22    0.23</time>
   <time name="total">    3.98    3.99</time>
   <energy>
    <i name="e_fr_energy">    -39.68867747 </i>
    <i name="e_wo_entrp">    -39.64675505 </i>
    <i name="e_0_energy">    -39.66771626 </i>
   </energy>
  </scstep>
  <scstep>
   <time name="dav">    0.23    0.23</time>
   <time name="total">    4.48    4.52</time>
   <energy>
    <i name="e_fr_energy">    -39.68852617 </i>
    <i name="e_wo_entrp">    -39.64667936 </i>
    <i name="e_0_energy">    -39.66760277 </i>
   </energy>
  </scstep>
  <scstep>
   <time name="dav">    0.24    0.25</time>
   <time name="total">    4.01    4.05</time>
   <energy>
    <i name="e_fr_energy">    -39.68846951 </i>
    <i name="e_wo_entrp">    -39.64674055 </i>
    <i name="e_0_energy">    -39.66760503 </i>
   </energy>
  </scstep>
  <scstep>
   <time name="dav">    0.23    0.23</time>
   <time name="total">    4.41    4.47</time>
   <energy>
    <i name="e_fr_energy">    -39.68849618 </i>
    <i name="e_wo_entrp">    -39.64677470 </i>
    <i name="e_0_energy">    -39.66763544 </i>
   </energy>
  </scstep>
  <scstep>
   <time name="dav">    0.20    0.21</time>
   <time name="total">    4.41    4.48</time>
   <energy>
    <i name="e_fr_energy">    -39.68858306 </i>
    <i name="e_wo_entrp">    -39.64667655 </i>
    <i name="e_0_energy">    -39.66762980 </i>
   </energy>
  </scstep>
  <scstep>
   <time name="dav">    0.22    0.22</time>
   <time name="total">    4.01    4.06</time>
   <energy>
    <i name="e_fr_energy">    -39.68871645 </i>
    <i name="e_wo_entrp">    -39.64638033 </i>
    <i name="e_0_energy">    -39.66754839 </i>
   </energy>
  </scstep>
  <scstep>
   <time name="dav">    0.23    0.23</time>
   <time name="total">    4.02    4.07</time>
   <energy>
    <i name="e_fr_energy">    -39.68880075 </i>
    <i name="e_wo_entrp">    -39.64596754 </i>
    <i name="e_0_energy">    -39.66738415 </i>
   </energy>
  </scstep>
  <scstep>
   <time name="dav">    0.25    0.25</time>
   <time name="total">    4.06    4.13</time>
   <energy>
    <i name="e_fr_energy">    -39.68879854 </i>
    <i name="e_wo_entrp">    -39.64556643 </i>
    <i name="e_0_energy">    -39.66718249 </i>
   </energy>
  </scstep>
  <scstep>
   <time name="dav">    0.24    0.24</time>
   <time name="total">    4.99    5.08</time>
   <energy>
    <i name="e_fr_energy">    -39.68868222 </i>
    <i name="e_wo_entrp">    -39.64532005 </i>
    <i name="e_0_energy">    -39.66700114 </i>
   </energy>
  </scstep>
  <scstep>
   <time name="dav">    0.21    0.22</time>
   <time name="total">    4.93    4.99</time>
   <energy>
    <i name="e_fr_energy">    -39.68983235 </i>
    <i name="e_wo_entrp">    -39.64386484 </i>
    <i name="e_0_energy">    -39.66684859 </i>
   </energy>
  </scstep>
  <scstep>
   <time name="dav">    0.23    0.23</time>
   <time name="total">    4.06    4.11</time>
   <energy>
    <i name="e_fr_energy">    -39.68885723 </i>
    <i name="e_wo_entrp">    -39.64244785 </i>
    <i name="e_0_energy">    -39.66565254 </i>
   </energy>
  </scstep>
  <scstep>
   <time name="dav">    0.22    0.23</time>
   <time name="total">    4.00    4.01</time>
   <energy>
    <i name="e_fr_energy">    -39.68824287 </i>
    <i name="e_wo_entrp">    -39.64175168 </i>
    <i name="e_0_energy">    -39.66499727 </i>
   </energy>
  </scstep>
  <scstep>
   <time name="dav">    0.24    0.25</time>
   <time name="total">    4.00    4.01</time>
   <energy>
    <i name="e_fr_energy">    -39.68810711 </i>
    <i name="e_wo_entrp">    -39.64150596 </i>
    <i name="e_0_energy">    -39.66480653 </i>
   </energy>
  </scstep>
  <scstep>
   <time name="dav">    0.22    0.22</time>
   <time name="total">    4.18    4.21</time>
   <energy>
    <i name="e_fr_energy">    -39.68792379 </i>
    <i name="e_wo_entrp">    -39.64139069 </i>
    <i name="e_0_energy">    -39.66465724 </i>
   </energy>
  </scstep>
  <scstep>
   <time name="dav">    0.21    0.21</time>
   <time name="total">    4.11    4.12</time>
   <energy>
    <i name="e_fr_energy">    -39.68735626 </i>
    <i name="e_wo_entrp">    -39.64172559 </i>
    <i name="e_0_energy">    -39.66454093 </i>
   </energy>
  </scstep>
  <scstep>
   <time name="dav">    0.23    0.23</time>
   <time name="total">    3.98    4.00</time>
   <energy>
    <i name="e_fr_energy">    -39.68737080 </i>
    <i name="e_wo_entrp">    -39.64293367 </i>
    <i name="e_0_energy">    -39.66515223 </i>
   </energy>
  </scstep>
  <scstep>
   <time name="dav">    0.25    0.25</time>
   <time name="total">    4.01    4.04</time>
   <energy>
    <i name="e_fr_energy">    -39.68788677 </i>
    <i name="e_wo_entrp">    -39.64420043 </i>
    <i name="e_0_energy">    -39.66604360 </i>
   </energy>
  </scstep>
  <scstep>
   <time name="dav">    0.25    0.25</time>
   <time name="total">    3.98    3.98</time>
   <energy>
    <i name="e_fr_energy">    -39.68817872 </i>
    <i name="e_wo_entrp">    -39.64501708 </i>
    <i name="e_0_energy">    -39.66659790 </i>
   </energy>
  </scstep>
  <scstep>
   <time name="dav">    0.22    0.22</time>
   <time name="total">    3.96    3.96</time>
   <energy>
    <i name="e_fr_energy">    -39.68829943 </i>
    <i name="e_wo_entrp">    -39.64557613 </i>
    <i name="e_0_energy">    -39.66693778 </i>
   </energy>
  </scstep>
  <scstep>
   <time name="dav">    0.26    0.26</time>
   <time name="total">    4.49    4.51</time>
   <energy>
    <i name="e_fr_energy">    -39.68827244 </i>
    <i name="e_wo_entrp">    -39.64609496 </i>
    <i name="e_0_energy">    -39.66718370 </i>
   </energy>
  </scstep>
  <scstep>
   <time name="dav">    0.26    0.26</time>
   <time name="total">    4.02    4.04</time>
   <energy>
    <i name="e_fr_energy">    -39.68808881 </i>
    <i name="e_wo_entrp">    -39.64677887 </i>
    <i name="e_0_energy">    -39.66743384 </i>
   </energy>
  </scstep>
  <scstep>
   <time name="dav">    0.25    0.25</time>
   <time name="total">    3.97    3.98</time>
   <energy>
    <i name="e_fr_energy">    -39.68833645 </i>
    <i name="e_wo_entrp">    -39.64713560 </i>
    <i name="e_0_energy">    -39.66773603 </i>
   </energy>
  </scstep>
  <scstep>
   <time name="dav">    0.24    0.25</time>
   <time name="total">    4.68    4.72</time>
   <energy>
    <i name="e_fr_energy">    -39.68840916 </i>
    <i name="e_wo_entrp">    -39.64722051 </i>
    <i name="e_0_energy">    -39.66781484 </i>
   </energy>
  </scstep>
  <scstep>
   <time name="dav">    0.23    0.23</time>
   <time name="total">    4.23    4.25</time>
   <energy>
    <i name="e_fr_energy">    -39.68845381 </i>
    <i name="e_wo_entrp">    -39.64720364 </i>
    <i name="e_0_energy">    -39.66782873 </i>
   </energy>
  </scstep>
  <scstep>
   <time name="dav">    0.21    0.21</time>
   <time name="total">    3.94    3.95</time>
   <energy>
    <i name="e_fr_energy">    -39.68795515 </i>
    <i name="e_wo_entrp">    -39.64764215 </i>
    <i name="e_0_energy">    -39.66779865 </i>
   </energy>
  </scstep>
  <scstep>
   <time name="dav">    0.23    0.23</time>
   <time name="total">    4.64    4.68</time>
   <energy>
    <i name="e_fr_energy">    -39.68787584 </i>
    <i name="e_wo_entrp">    -39.64802230 </i>
    <i name="e_0_energy">    -39.66794907 </i>
   </energy>
  </scstep>
  <scstep>
   <time name="dav">    0.22    0.22</time>
   <time name="total">    3.98    3.99</time>
   <energy>
    <i name="e_fr_energy">    -39.68790797 </i>
    <i name="e_wo_entrp">    -39.64819580 </i>
    <i name="e_0_energy">    -39.66805189 </i>
   </energy>
  </scstep>
  <scstep>
   <time name="dav">    0.24    0.24</time>
   <time name="total">    4.10    4.11</time>
   <energy>
    <i name="e_fr_energy">    -39.68803685 </i>
    <i name="e_wo_entrp">    -39.64822901 </i>
    <i name="e_0_energy">    -39.66813293 </i>
   </energy>
  </scstep>
  <scstep>
   <time name="dav">    0.22    0.22</time>
   <time name="total">    4.26    4.27</time>
   <energy>
    <i name="e_fr_energy">    -39.68783880 </i>
    <i name="e_wo_entrp">    -39.64826064 </i>
    <i name="e_0_energy">    -39.66804972 </i>
   </energy>
  </scstep>
  <scstep>
   <time name="dav">    0.23    0.23</time>
   <time name="total">    4.06    4.06</time>
   <energy>
    <i name="e_fr_energy">    -39.68820204 </i>
    <i name="e_wo_entrp">    -39.64818977 </i>
    <i name="e_0_energy">    -39.66819591 </i>
   </energy>
  </scstep>
  <scstep>
   <time name="dav">    0.23    0.23</time>
   <time name="total">    4.33    4.34</time>
   <energy>
    <i name="e_fr_energy">    -39.68844736 </i>
    <i name="e_wo_entrp">    -39.64785461 </i>
    <i name="e_0_energy">    -39.66815099 </i>
   </energy>
  </scstep>
  <scstep>
   <time name="dav">    0.22    0.22</time>
   <time name="total">    3.96    3.97</time>
   <energy>
    <i name="e_fr_energy">    -39.68836242 </i>
    <i name="e_wo_entrp">    -39.64772629 </i>
    <i name="e_0_energy">    -39.66804435 </i>
   </energy>
  </scstep>
  <scstep>
   <time name="dav">    0.23    0.23</time>
   <time name="total">    4.75    4.77</time>
   <energy>
    <i name="e_fr_energy">    -39.68830201 </i>
    <i name="e_wo_entrp">    -39.64772428 </i>
    <i name="e_0_energy">    -39.66801315 </i>
   </energy>
  </scstep>
  <scstep>
   <time name="dav">    0.18    0.18</time>
   <time name="total">    3.94    3.95</time>
   <energy>
    <i name="e_fr_energy">    -39.68830138 </i>
    <i name="e_wo_entrp">    -39.64773485 </i>
    <i name="e_0_energy">    -39.66801812 </i>
   </energy>
  </scstep>
  <scstep>
   <time name="dav">    0.16    0.16</time>
   <time name="total">    3.89    3.89</time>
   <energy>
    <i name="e_fr_energy">    -39.68830978 </i>
    <i name="e_wo_entrp">    -39.64773299 </i>
    <i name="e_0_energy">    -39.66802139 </i>
   </energy>
  </scstep>
  <scstep>
   <time name="dav">    0.21    0.22</time>
   <time name="total">    3.97    4.00</time>
   <energy>
    <i name="e_fr_energy">    -39.68845335 </i>
    <i name="e_wo_entrp">    -39.64757424 </i>
    <i name="e_0_energy">    -39.66801380 </i>
   </energy>
  </scstep>
  <scstep>
   <time name="dav">    0.23    0.23</time>
   <time name="total">    4.79    4.81</time>
   <energy>
    <i name="e_fr_energy">    -39.68841559 </i>
    <i name="e_wo_entrp">    -39.64749361 </i>
    <i name="e_0_energy">    -39.66795460 </i>
   </energy>
  </scstep>
  <scstep>
   <time name="dav">    0.22    0.22</time>
   <time name="total">    3.96    3.97</time>
   <energy>
    <i name="e_fr_energy">    -39.68830725 </i>
    <i name="e_wo_entrp">    -39.64756709 </i>
    <i name="e_0_energy">    -39.66793717 </i>
   </energy>
  </scstep>
  <scstep>
   <time name="dav">    0.24    0.24</time>
   <time name="total">    4.42    4.46</time>
   <energy>
    <i name="e_fr_energy">    -39.68823179 </i>
    <i name="e_wo_entrp">    -39.64770651 </i>
    <i name="e_0_energy">    -39.66796915 </i>
   </energy>
  </scstep>
  <scstep>
   <time name="dav">    0.22    0.22</time>
   <time name="total">    4.01    4.07</time>
   <energy>
    <i name="e_fr_energy">    -39.68824227 </i>
    <i name="e_wo_entrp">    -39.64779604 </i>
    <i name="e_0_energy">    -39.66801915 </i>
   </energy>
  </scstep>
  <scstep>
   <time name="dav">    0.22    0.22</time>
   <time name="total">    3.98    4.00</time>
   <energy>
    <i name="e_fr_energy">    -39.68835984 </i>
    <i name="e_wo_entrp">    -39.64773065 </i>
    <i name="e_0_energy">    -39.66804524 </i>
   </energy>
  </scstep>
  <scstep>
   <time name="dav">    0.26    0.26</time>
   <time name="total">    4.00    4.01</time>
   <energy>
    <i name="e_fr_energy">    -39.68838165 </i>
    <i name="e_wo_entrp">    -39.64764613 </i>
    <i name="e_0_energy">    -39.66801389 </i>
   </energy>
  </scstep>
  <scstep>
   <time name="dav">    0.21    0.21</time>
   <time name="total">    4.03    4.04</time>
   <energy>
    <i name="e_fr_energy">    -39.68822278 </i>
    <i name="e_wo_entrp">    -39.64774897 </i>
    <i name="e_0_energy">    -39.66798588 </i>
   </energy>
  </scstep>
  <scstep>
   <time name="dav">    0.23    0.23</time>
   <time name="total">    5.25    5.26</time>
   <energy>
    <i name="e_fr_energy">    -39.68810195 </i>
    <i name="e_wo_entrp">    -39.64792653 </i>
    <i name="e_0_energy">    -39.66801424 </i>
   </energy>
  </scstep>
  <scstep>
   <time name="dav">    0.25    0.25</time>
   <time name="total">    4.81    4.84</time>
   <energy>
    <i name="e_fr_energy">    -39.68783872 </i>
    <i name="e_wo_entrp">    -39.64813128 </i>
    <i name="e_0_energy">    -39.66798500 </i>
   </energy>
  </scstep>
  <scstep>
   <time name="dav">    0.27    0.27</time>
   <time name="total">    4.47    4.48</time>
   <energy>
    <i name="e_fr_energy">    -39.68776840 </i>
    <i name="e_wo_entrp">    -39.64826563 </i>
    <i name="e_0_energy">    -39.66801701 </i>
   </energy>
  </scstep>
  <scstep>
   <time name="dav">    0.20    0.21</time>
   <time name="total">    3.95    3.96</time>
   <energy>
    <i name="e_fr_energy">    -39.68724100 </i>
    <i name="e_wo_entrp">    -39.64816914 </i>
    <i name="e_0_energy">    -39.66770507 </i>
   </energy>
  </scstep>
  <scstep>
   <time name="dav">    0.21    0.21</time>
   <time name="total">    3.94    3.95</time>
   <energy>
    <i name="e_fr_energy">    -39.68785185 </i>
    <i name="e_wo_entrp">    -39.64841454 </i>
    <i name="e_0_energy">    -39.66813319 </i>
   </energy>
  </scstep>
  <scstep>
   <time name="dav">    0.23    0.23</time>
   <time name="total">    4.47    4.47</time>
   <energy>
    <i name="e_fr_energy">    -39.68827287 </i>
    <i name="e_wo_entrp">    -39.64821130 </i>
    <i name="e_0_energy">    -39.66824208 </i>
   </energy>
  </scstep>
  <scstep>
   <time name="dav">    0.25    0.25</time>
   <time name="total">    4.00    4.02</time>
   <energy>
    <i name="e_fr_energy">    -39.68831085 </i>
    <i name="e_wo_entrp">    -39.64799980 </i>
    <i name="e_0_energy">    -39.66815533 </i>
   </energy>
  </scstep>
  <scstep>
   <time name="dav">    0.22    0.22</time>
   <time name="total">    4.49    4.51</time>
   <energy>
    <i name="e_fr_energy">    -39.68878215 </i>
    <i name="e_wo_entrp">    -39.64721034 </i>
    <i name="e_0_energy">    -39.66799625 </i>
   </energy>
  </scstep>
  <scstep>
   <time name="dav">    0.25    0.26</time>
   <time name="total">    3.99    3.99</time>
   <energy>
    <i name="e_fr_energy">    -39.68930834 </i>
    <i name="e_wo_entrp">    -39.64573946 </i>
    <i name="e_0_energy">    -39.66752390 </i>
   </energy>
  </scstep>
  <scstep>
   <time name="dav">    0.22    0.23</time>
   <time name="total">    3.96    3.97</time>
   <energy>
    <i name="e_fr_energy">    -39.68963672 </i>
    <i name="e_wo_entrp">    -39.64417640 </i>
    <i name="e_0_energy">    -39.66690656 </i>
   </energy>
  </scstep>
  <scstep>
   <time name="dav">    0.22    0.22</time>
   <time name="total">    3.97    3.99</time>
   <energy>
    <i name="e_fr_energy">    -39.68895873 </i>
    <i name="e_wo_entrp">    -39.64292678 </i>
    <i name="e_0_energy">    -39.66594276 </i>
   </energy>
  </scstep>
  <scstep>
   <time name="dav">    0.25    0.26</time>
   <time name="total">    4.01    4.04</time>
   <energy>
    <i name="e_fr_energy">    -39.69083942 </i>
    <i name="e_wo_entrp">    -39.64151153 </i>
    <i name="e_0_energy">    -39.66617548 </i>
   </energy>
  </scstep>
  <scstep>
   <time name="dav">    0.21    0.21</time>
   <time name="total">    3.97    4.01</time>
   <energy>
    <i name="e_fr_energy">    -39.68818357 </i>
    <i name="e_wo_entrp">    -39.63822067 </i>
    <i name="e_0_energy">    -39.66320212 </i>
   </energy>
  </scstep>
  <scstep>
   <time name="dav">    0.23    0.23</time>
   <time name="total">    4.30    4.34</time>
   <energy>
    <i name="e_fr_energy">    -39.68626136 </i>
    <i name="e_wo_entrp">    -39.63637248 </i>
    <i name="e_0_energy">    -39.66131692 </i>
   </energy>
  </scstep>
  <scstep>
   <time name="dav">    0.26    0.26</time>
   <time name="total">    4.12    4.15</time>
   <energy>
    <i name="e_fr_energy">    -39.68574387 </i>
    <i name="e_wo_entrp">    -39.63606521 </i>
    <i name="e_0_energy">    -39.66090454 </i>
   </energy>
  </scstep>
  <scstep>
   <time name="dav">    0.20    0.20</time>
   <time name="total">    3.96    4.00</time>
   <energy>
    <i name="e_fr_energy">    -39.68333051 </i>
    <i name="e_wo_entrp">    -39.63648652 </i>
    <i name="e_0_energy">    -39.65990851 </i>
   </energy>
  </scstep>
  <scstep>
   <time name="dav">    0.22    0.22</time>
   <time name="total">    3.99    4.03</time>
   <energy>
    <i name="e_fr_energy">    -39.68577965 </i>
    <i name="e_wo_entrp">    -39.64071268 </i>
    <i name="e_0_energy">    -39.66324617 </i>
   </energy>
  </scstep>
  <scstep>
   <time name="dav">    0.22    0.22</time>
   <time name="total">    3.97    4.00</time>
   <energy>
    <i name="e_fr_energy">    -39.68880144 </i>
    <i name="e_wo_entrp">    -39.64230489 </i>
    <i name="e_0_energy">    -39.66555316 </i>
   </energy>
  </scstep>
  <scstep>
   <time name="dav">    0.22    0.22</time>
   <time name="total">    3.99    4.00</time>
   <energy>
    <i name="e_fr_energy">    -39.68797918 </i>
    <i name="e_wo_entrp">    -39.64172013 </i>
    <i name="e_0_energy">    -39.66484965 </i>
   </energy>
  </scstep>
  <scstep>
   <time name="dav">    0.22    0.22</time>
   <time name="total">    4.03    4.07</time>
   <energy>
    <i name="e_fr_energy">    -39.68752181 </i>
    <i name="e_wo_entrp">    -39.64204821 </i>
    <i name="e_0_energy">    -39.66478501 </i>
   </energy>
  </scstep>
  <scstep>
   <time name="dav">    0.20    0.20</time>
   <time name="total">    3.97    4.00</time>
   <energy>
    <i name="e_fr_energy">    -39.68896569 </i>
    <i name="e_wo_entrp">    -39.64217309 </i>
    <i name="e_0_energy">    -39.66556939 </i>
   </energy>
  </scstep>
  <scstep>
   <time name="dav">    0.22    0.22</time>
   <time name="total">    3.96    3.96</time>
   <energy>
    <i name="e_fr_energy">    -39.68834140 </i>
    <i name="e_wo_entrp">    -39.64119230 </i>
    <i name="e_0_energy">    -39.66476685 </i>
   </energy>
  </scstep>
  <scstep>
   <time name="dav">    0.24    0.24</time>
   <time name="total">    3.99    4.01</time>
   <energy>
    <i name="e_fr_energy">    -39.68796733 </i>
    <i name="e_wo_entrp">    -39.64062568 </i>
    <i name="e_0_energy">    -39.66429651 </i>
   </energy>
  </scstep>
  <scstep>
   <time name="dav">    0.22    0.22</time>
   <time name="total">    3.99    4.02</time>
   <energy>
    <i name="e_fr_energy">    -39.68767461 </i>
    <i name="e_wo_entrp">    -39.64032706 </i>
    <i name="e_0_energy">    -39.66400084 </i>
   </energy>
  </scstep>
  <scstep>
   <time name="dav">    0.24    0.25</time>
   <time name="total">    4.57    4.61</time>
   <energy>
    <i name="e_fr_energy">    -39.68760682 </i>
    <i name="e_wo_entrp">    -39.64026172 </i>
    <i name="e_0_energy">    -39.66393427 </i>
   </energy>
  </scstep>
  <scstep>
   <time name="dav">    0.21    0.22</time>
   <time name="total">    4.41    4.53</time>
   <energy>
    <i name="e_fr_energy">    -39.68766337 </i>
    <i name="e_wo_entrp">    -39.64023433 </i>
    <i name="e_0_energy">    -39.66394885 </i>
   </energy>
  </scstep>
  <scstep>
   <time name="dav">    0.22    0.22</time>
   <time name="total">    4.28    4.32</time>
   <energy>
    <i name="e_fr_energy">    -39.68736148 </i>
    <i name="e_wo_entrp">    -39.64020593 </i>
    <i name="e_0_energy">    -39.66378370 </i>
   </energy>
  </scstep>
  <scstep>
   <time name="dav">    0.21    0.21</time>
   <time name="total">    3.94    3.96</time>
   <energy>
    <i name="e_fr_energy">    -39.68780719 </i>
    <i name="e_wo_entrp">    -39.64040503 </i>
    <i name="e_0_energy">    -39.66410611 </i>
   </energy>
  </scstep>
  <scstep>
   <time name="dav">    0.23    0.23</time>
   <time name="total">    4.28    4.29</time>
   <energy>
    <i name="e_fr_energy">    -39.68735194 </i>
    <i name="e_wo_entrp">    -39.64028728 </i>
    <i name="e_0_energy">    -39.66381961 </i>
   </energy>
  </scstep>
  <scstep>
   <time name="dav">    0.22    0.22</time>
   <time name="total">    4.25    4.26</time>
   <energy>
    <i name="e_fr_energy">    -39.68782869 </i>
    <i name="e_wo_entrp">    -39.64052283 </i>
    <i name="e_0_energy">    -39.66417576 </i>
   </energy>
  </scstep>
  <scstep>
   <time name="dav">    0.22    0.22</time>
   <time name="total">    3.96    3.97</time>
   <energy>
    <i name="e_fr_energy">    -39.68748432 </i>
    <i name="e_wo_entrp">    -39.64039729 </i>
    <i name="e_0_energy">    -39.66394081 </i>
   </energy>
  </scstep>
  <scstep>
   <time name="dav">    0.20    0.20</time>
   <time name="total">    3.93    3.93</time>
   <energy>
    <i name="e_fr_energy">    -39.68779473 </i>
    <i name="e_wo_entrp">    -39.64052680 </i>
    <i name="e_0_energy">    -39.66416077 </i>
   </energy>
  </scstep>
  <scstep>
   <time name="dav">    0.21    0.21</time>
   <time name="total">    3.95    3.96</time>
   <energy>
    <i name="e_fr_energy">    -39.68755400 </i>
    <i name="e_wo_entrp">    -39.64041764 </i>
    <i name="e_0_energy">    -39.66398582 </i>
   </energy>
  </scstep>
  <scstep>
   <time name="dav">    0.20    0.21</time>
   <time name="total">    3.98    3.99</time>
   <energy>
    <i name="e_fr_energy">    -39.68759783 </i>
    <i name="e_wo_entrp">    -39.64053755 </i>
    <i name="e_0_energy">    -39.66406769 </i>
   </energy>
  </scstep>
  <scstep>
   <time name="dav">    0.22    0.22</time>
   <time name="total">    3.97    3.98</time>
   <energy>
    <i name="e_fr_energy">    -39.68800237 </i>
    <i name="e_wo_entrp">    -39.64053299 </i>
    <i name="e_0_energy">    -39.66426768 </i>
   </energy>
  </scstep>
  <scstep>
   <time name="dav">    0.22    0.22</time>
   <time name="total">    4.05    4.09</time>
   <energy>
    <i name="e_fr_energy">    -39.68766075 </i>
    <i name="e_wo_entrp">    -39.64013663 </i>
    <i name="e_0_energy">    -39.66389869 </i>
   </energy>
  </scstep>
  <scstep>
   <time name="dav">    0.21    0.21</time>
   <time name="total">    4.40    4.47</time>
   <energy>
    <i name="e_fr_energy">    -39.68849164 </i>
    <i name="e_wo_entrp">    -39.63985001 </i>
    <i name="e_0_energy">    -39.66417082 </i>
   </energy>
  </scstep>
  <scstep>
   <time name="dav">    0.20    0.20</time>
   <time name="total">    4.01    4.07</time>
   <energy>
    <i name="e_fr_energy">    -39.68733726 </i>
    <i name="e_wo_entrp">    -39.63853777 </i>
    <i name="e_0_energy">    -39.66293752 </i>
   </energy>
  </scstep>
  <scstep>
   <time name="dav">    0.21    0.21</time>
   <time name="total">    3.98    4.01</time>
   <energy>
    <i name="e_fr_energy">    -39.68680057 </i>
    <i name="e_wo_entrp">    -39.63805041 </i>
    <i name="e_0_energy">    -39.66242549 </i>
   </energy>
  </scstep>
  <scstep>
   <time name="dav">    0.27    0.27</time>
   <time name="total">    4.09    4.15</time>
   <energy>
    <i name="e_fr_energy">    -39.68660502 </i>
    <i name="e_wo_entrp">    -39.63801996 </i>
    <i name="e_0_energy">    -39.66231249 </i>
   </energy>
  </scstep>
  <scstep>
   <time name="dav">    0.22    0.23</time>
   <time name="total">    4.50    4.60</time>
   <energy>
    <i name="e_fr_energy">    -39.68704853 </i>
    <i name="e_wo_entrp">    -39.63822722 </i>
    <i name="e_0_energy">    -39.66263788 </i>
   </energy>
  </scstep>
  <scstep>
   <time name="dav">    0.21    0.22</time>
   <time name="total">    4.62    4.76</time>
   <energy>
    <i name="e_fr_energy">    -39.68633333 </i>
    <i name="e_wo_entrp">    -39.63797722 </i>
    <i name="e_0_energy">    -39.66215528 </i>
   </energy>
  </scstep>
  <scstep>
   <time name="dav">    0.21    0.22</time>
   <time name="total">    5.23    5.41</time>
   <energy>
    <i name="e_fr_energy">    -39.68626536 </i>
    <i name="e_wo_entrp">    -39.63861283 </i>
    <i name="e_0_energy">    -39.66243910 </i>
   </energy>
  </scstep>
  <scstep>
   <time name="dav">    0.21    0.21</time>
   <time name="total">    5.11    5.23</time>
   <energy>
    <i name="e_fr_energy">    -39.68665276 </i>
    <i name="e_wo_entrp">    -39.63969787 </i>
    <i name="e_0_energy">    -39.66317532 </i>
   </energy>
[...]
        <r>  0.0000  0.3813  0.0000  0.0000 </r>
        <r>  0.0000  0.3813  0.0000  0.0000 </r>
        <r>  0.0000  0.0000  0.0000  0.0000 </r>
        <r>  0.0000  0.0016  0.0000  0.0000 </r>
        <r>  0.0000  0.0016  0.0000  0.0000 </r>
        <r>  0.0000  0.0009  0.0000  0.0000 </r>
        <r>  0.0000  0.0009  0.0000  0.0000 </r>
        <r>  0.0000  0.0011  0.0000  0.0000 </r>
        <r>  0.0000  0.0011  0.0000  0.0000 </r>
       </set>
       <set comment="band 18">
        <r>  0.0000  0.0002  0.0000  0.0000 </r>
        <r>  0.0000  0.3813  0.0000  0.0000 </r>
        <r>  0.0000  0.3813  0.0000  0.0000 </r>
        <r>  0.0000  0.0000  0.0000  0.0000 </r>
        <r>  0.0000  0.0012  0.0000  0.0000 </r>
        <r>  0.0000  0.0012  0.0000  0.0000 </r>
        <r>  0.0000  0.0012  0.0000  0.0000 </r>
        <r>  0.0000  0.0012  0.0000  0.0000 </r>
        <r>  0.0000  0.0012  0.0000  0.0000 </r>
        <r>  0.0000  0.0012  0.0000  0.0000 </r>
       </set>
       <set comment="band 19">
        <r>  0.0352  0.0000  0.0000  0.0000 </r>
        <r>  0.0000  0.0000  0.0000  0.0000 </r>
        <r>  0.0000  0.0000  0.0000  0.0000 </r>
        <r>  0.0213  0.0000  0.0000  0.0000 </r>
        <r>  0.0001  0.0811  0.0000  0.0000 </r>
        <r>  0.0001  0.0811  0.0000  0.0000 </r>
        <r>  0.0001  0.0811  0.0000  0.0000 </r>
        <r>  0.0001  0.0811  0.0000  0.0000 </r>
        <r>  0.0001  0.0811  0.0000  0.0000 </r>
        <r>  0.0001  0.0811  0.0000  0.0000 </r>
       </set>
       <set comment="band 20">
        <r>  0.0000  0.0239  0.0000  0.0059 </r>
        <r>  0.0000  0.0100  0.0000  0.0000 </r>
        <r>  0.0000  0.0100  0.0000  0.0000 </r>
        <r>  0.0000  0.0066  0.0000  0.0000 </r>
        <r>  0.0000  0.0682  0.0000  0.0000 </r>
        <r>  0.0000  0.0682  0.0000  0.0000 </r>
        <r>  0.0000  0.0692  0.0000  0.0000 </r>
        <r>  0.0000  0.0692  0.0000  0.0000 </r>
        <r>  0.0000  0.1388  0.0000  0.0000 </r>
        <r>  0.0000  0.1388  0.0000  0.0000 </r>
       </set>
       <set comment="band 21">
        <r>  0.0000  0.0239  0.0000  0.0059 </r>
        <r>  0.0000  0.0100  0.0000  0.0000 </r>
        <r>  0.0000  0.0100  0.0000  0.0000 </r>
        <r>  0.0000  0.0066  0.0000  0.0000 </r>
        <r>  0.0000  0.1146  0.0000  0.0000 </r>
        <r>  0.0000  0.1146  0.0000  0.0000 </r>
        <r>  0.0000  0.1137  0.0000  0.0000 </r>
        <r>  0.0000  0.1137  0.0000  0.0000 </r>
        <r>  0.0000  0.0478  0.0000  0.0000 </r>
        <r>  0.0000  0.0478  0.0000  0.0000 </r>
       </set>
       <set comment="band 22">
        <r>  0.0000  0.0239  0.0000  0.0059 </r>
        <r>  0.0000  0.0100  0.0000  0.0000 </r>
        <r>  0.0000  0.0100  0.0000  0.0000 </r>
        <r>  0.0000  0.0066  0.0000  0.0000 </r>
        <r>  0.0000  0.0933  0.0000  0.0000 </r>
        <r>  0.0000  0.0933  0.0000  0.0000 </r>
        <r>  0.0000  0.0933  0.0000  0.0000 </r>
        <r>  0.0000  0.0933  0.0000  0.0000 </r>
        <r>  0.0000  0.0895  0.0000  0.0000 </r>
        <r>  0.0000  0.0895  0.0000  0.0000 </r>
       </set>
       <set comment="band 23">
        <r>  0.0000  0.0000  0.0168  0.0000 </r>
        <r>  0.0000  0.0281  0.0000  0.0000 </r>
        <r>  0.0000  0.0281  0.0000  0.0000 </r>
        <r>  0.0000  0.0000  0.0000  0.0000 </r>
        <r>  0.0000  0.0688  0.0000  0.0000 </r>
        <r>  0.0000  0.0688  0.0000  0.0000 </r>
        <r>  0.0000  0.0605  0.0000  0.0000 </r>
        <r>  0.0000  0.0605  0.0000  0.0000 </r>
        <r>  0.0000  0.1288  0.0000  0.0000 </r>
        <r>  0.0000  0.1288  0.0000  0.0000 </r>
       </set>
       <set comment="band 24">
        <r>  0.0000  0.0000  0.0168  0.0000 </r>
        <r>  0.0000  0.0281  0.0000  0.0000 </r>
        <r>  0.0000  0.0281  0.0000  0.0000 </r>
        <r>  0.0000  0.0000  0.0000  0.0000 </r>
        <r>  0.0000  0.1032  0.0000  0.0000 </r>
        <r>  0.0000  0.1032  0.0000  0.0000 </r>
        <r>  0.0000  0.1115  0.0000  0.0000 </r>
        <r>  0.0000  0.1115  0.0000  0.0000 </r>
        <r>  0.0000  0.0433  0.0000  0.0000 </r>
        <r>  0.0000  0.0433  0.0000  0.0000 </r>
       </set>
       <set comment="band 25">
        <r>  0.0000  0.0000  0.0168  0.0000 </r>
        <r>  0.0000  0.0281  0.0000  0.0000 </r>
        <r>  0.0000  0.0281  0.0000  0.0000 </r>
        <r>  0.0000  0.0000  0.0000  0.0000 </r>
        <r>  0.0000  0.0861  0.0000  0.0000 </r>
        <r>  0.0000  0.0861  0.0000  0.0000 </r>
        <r>  0.0000  0.0861  0.0000  0.0000 </r>
        <r>  0.0000  0.0861  0.0000  0.0000 </r>
        <r>  0.0000  0.0860  0.0000  0.0000 </r>
        <r>  0.0000  0.0860  0.0000  0.0000 </r>
       </set>
       <set comment="band 26">
        <r>  0.0000  0.0000  0.0725  0.0000 </r>
        <r>  0.0000  0.0000  0.0000  0.0000 </r>
        <r>  0.0000  0.0000  0.0000  0.0000 </r>
        <r>  0.0000  0.0000  0.0000  0.0000 </r>
        <r>  0.0009  0.1432  0.0000  0.0000 </r>
        <r>  0.0009  0.1432  0.0000  0.0000 </r>
        <r>  0.0009  0.1531  0.0000  0.0000 </r>
        <r>  0.0009  0.1531  0.0000  0.0000 </r>
        <r>  0.0000  0.0002  0.0000  0.0000 </r>
        <r>  0.0000  0.0002  0.0000  0.0000 </r>
       </set>
       <set comment="band 27">
        <r>  0.0000  0.0000  0.0725  0.0000 </r>
        <r>  0.0000  0.0000  0.0000  0.0000 </r>
        <r>  0.0000  0.0000  0.0000  0.0000 </r>
        <r>  0.0000  0.0000  0.0000  0.0000 </r>
        <r>  0.0003  0.0544  0.0000  0.0000 </r>
        <r>  0.0003  0.0544  0.0000  0.0000 </r>
        <r>  0.0003  0.0445  0.0000  0.0000 </r>
        <r>  0.0003  0.0445  0.0000  0.0000 </r>
        <r>  0.0012  0.1974  0.0000  0.0000 </r>
        <r>  0.0012  0.1974  0.0000  0.0000 </r>
       </set>
       <set comment="band 28">
        <r>  0.0000  0.0000  0.0000  0.0172 </r>
        <r>  0.0000  0.0000  0.0000  0.0000 </r>
        <r>  0.0000  0.0000  0.0000  0.0000 </r>
        <r>  0.0000  0.0000  0.0000  0.0000 </r>
        <r>  0.0000  0.1041  0.0000  0.0000 </r>
        <r>  0.0000  0.1041  0.0000  0.0000 </r>
        <r>  0.0000  0.1041  0.0000  0.0000 </r>
        <r>  0.0000  0.1041  0.0000  0.0000 </r>
        <r>  0.0000  0.1026  0.0000  0.0000 </r>
        <r>  0.0000  0.1026  0.0000  0.0000 </r>
       </set>
       <set comment="band 29">
        <r>  0.0000  0.0000  0.0000  0.0172 </r>
        <r>  0.0000  0.0000  0.0000  0.0000 </r>
        <r>  0.0000  0.0000  0.0000  0.0000 </r>
        <r>  0.0000  0.0000  0.0000  0.0000 </r>
        <r>  0.0000  0.1290  0.0000  0.0000 </r>
        <r>  0.0000  0.1290  0.0000  0.0000 </r>
        <r>  0.0000  0.1291  0.0000  0.0000 </r>
        <r>  0.0000  0.1291  0.0000  0.0000 </r>
        <r>  0.0000  0.0528  0.0000  0.0000 </r>
        <r>  0.0000  0.0528  0.0000  0.0000 </r>
       </set>
       <set comment="band 30">
        <r>  0.0000  0.0000  0.0000  0.0172 </r>
        <r>  0.0000  0.0000  0.0000  0.0000 </r>
        <r>  0.0000  0.0000  0.0000  0.0000 </r>
        <r>  0.0000  0.0000  0.0000  0.0000 </r>
        <r>  0.0000  0.0778  0.0000  0.0000 </r>
        <r>  0.0000  0.0778  0.0000  0.0000 </r>
        <r>  0.0000  0.0777  0.0000  0.0000 </r>
        <r>  0.0000  0.0777  0.0000  0.0000 </r>
        <r>  0.0000  0.1555  0.0000  0.0000 </r>
        <r>  0.0000  0.1555  0.0000  0.0000 </r>
       </set>
       <set comment="band 31">
        <r>  0.0000  0.0030  0.0000  0.0628 </r>
        <r>  0.0000  0.0058  0.0000  0.0000 </r>
        <r>  0.0000  0.0058  0.0000  0.0000 </r>
        <r>  0.0000  0.0012  0.0000  0.0000 </r>
        <r>  0.0000  0.1006  0.0000  0.0000 </r>
        <r>  0.0000  0.1006  0.0000  0.0000 </r>
        <r>  0.0000  0.1006  0.0000  0.0000 </r>
        <r>  0.0000  0.1006  0.0000  0.0000 </r>
        <r>  0.0001  0.1128  0.0000  0.0000 </r>
        <r>  0.0001  0.1128  0.0000  0.0000 </r>
       </set>
       <set comment="band 32">
        <r>  0.0000  0.0030  0.0000  0.0627 </r>
        <r>  0.0000  0.0058  0.0000  0.0000 </r>
        <r>  0.0000  0.0058  0.0000  0.0000 </r>
        <r>  0.0000  0.0012  0.0000  0.0000 </r>
        <r>  0.0000  0.1082  0.0000  0.0000 </r>
        <r>  0.0000  0.1082  0.0000  0.0000 </r>
        <r>  0.0000  0.1082  0.0000  0.0000 </r>
        <r>  0.0000  0.1082  0.0000  0.0000 </r>
        <r>  0.0000  0.0975  0.0000  0.0000 </r>
        <r>  0.0000  0.0975  0.0000  0.0000 </r>
       </set>
       <set comment="band 33">
        <r>  0.0000  0.0030  0.0000  0.0627 </r>
        <r>  0.0000  0.0058  0.0000  0.0000 </r>
        <r>  0.0000  0.0058  0.0000  0.0000 </r>
        <r>  0.0000  0.0012  0.0000  0.0000 </r>
        <r>  0.0000  0.1052  0.0000  0.0000 </r>
        <r>  0.0000  0.1052  0.0000  0.0000 </r>
        <r>  0.0000  0.1052  0.0000  0.0000 </r>
        <r>  0.0000  0.1052  0.0000  0.0000 </r>
        <r>  0.0000  0.1036  0.0000  0.0000 </r>
        <r>  0.0000  0.1036  0.0000  0.0000 </r>
       </set>
       <set comment="band 34">
        <r>  0.0000  0.0000  0.0000  0.0000 </r>
        <r>  0.0000  0.0000  0.0000  0.0000 </r>
        <r>  0.0000  0.0000  0.0000  0.0000 </r>
        <r>  0.0000  0.0000  0.0000  0.0000 </r>
        <r>  0.0000  0.1143  0.0000  0.0000 </r>
        <r>  0.0000  0.1143  0.0000  0.0000 </r>
        <r>  0.0000  0.1143  0.0000  0.0000 </r>
        <r>  0.0000  0.1143  0.0000  0.0000 </r>
        <r>  0.0000  0.1143  0.0000  0.0000 </r>
        <r>  0.0000  0.1143  0.0000  0.0000 </r>
       </set>
       <set comment="band 35">
        <r>  0.0000  0.0000  0.0000  0.0000 </r>
        <r>  0.0000  0.0000  0.0000  0.0000 </r>
        <r>  0.0000  0.0000  0.0000  0.0000 </r>
        <r>  0.0000  0.0000  0.0000  0.0000 </r>
        <r>  0.0000  0.1692  0.0000  0.0000 </r>
        <r>  0.0000  0.1692  0.0000  0.0000 </r>
        <r>  0.0000  0.0731  0.0000  0.0000 </r>
        <r>  0.0000  0.0731  0.0000  0.0000 </r>
        <r>  0.0000  0.1005  0.0000  0.0000 </r>
        <r>  0.0000  0.1005  0.0000  0.0000 </r>
       </set>
       <set comment="band 36">
        <r>  0.0000  0.0000  0.0000  0.0000 </r>
        <r>  0.0000  0.0000  0.0000  0.0000 </r>
        <r>  0.0000  0.0000  0.0000  0.0000 </r>
        <r>  0.0000  0.0000  0.0000  0.0000 </r>
        <r>  0.0000  0.0593  0.0000  0.0000 </r>
        <r>  0.0000  0.0593  0.0000  0.0000 </r>
        <r>  0.0000  0.1554  0.0000  0.0000 </r>
        <r>  0.0000  0.1554  0.0000  0.0000 </r>
        <r>  0.0000  0.1281  0.0000  0.0000 </r>
        <r>  0.0000  0.1281  0.0000  0.0000 </r>
       </set>
       <set comment="band 37">
        <r>  0.0000  0.0000  0.0000  0.9877 </r>
        <r>  0.0000  0.0000  0.0000  0.0000 </r>
        <r>  0.0000  0.0000  0.0000  0.0000 </r>
        <r>  0.0000  0.0000  0.0000  0.0000 </r>
        <r>  0.0000  0.0000  0.0000  0.0000 </r>
        <r>  0.0000  0.0000  0.0000  0.0000 </r>
        <r>  0.0000  0.0000  0.0000  0.0000 </r>
        <r>  0.0000  0.0000  0.0000  0.0000 </r>
        <r>  0.0000  0.0000  0.0000  0.0000 </r>
        <r>  0.0000  0.0000  0.0000  0.0000 </r>
       </set>
       <set comment="band 38">
        <r>  0.0000  0.0000  0.0000  0.9717 </r>
        <r>  0.0000  0.0000  0.0000  0.0000 </r>
        <r>  0.0000  0.0000  0.0000  0.0000 </r>
        <r>  0.0000  0.0000  0.0000  0.0000 </r>
        <r>  0.0000  0.0023  0.0000  0.0000 </r>
        <r>  0.0000  0.0023  0.0000  0.0000 </r>
        <r>  0.0000  0.0023  0.0000  0.0000 </r>
        <r>  0.0000  0.0023  0.0000  0.0000 </r>
        <r>  0.0000  0.0021  0.0000  0.0000 </r>
        <r>  0.0000  0.0021  0.0000  0.0000 </r>
       </set>
       <set comment="band 39">
        <r>  0.0000  0.0000  0.0000  0.9717 </r>
        <r>  0.0000  0.0000  0.0000  0.0000 </r>
        <r>  0.0000  0.0000  0.0000  0.0000 </r>
        <r>  0.0000  0.0000  0.0000  0.0000 </r>
        <r>  0.0000  0.0027  0.0000  0.0000 </r>
        <r>  0.0000  0.0027  0.0000  0.0000 </r>
        <r>  0.0000  0.0027  0.0000  0.0000 </r>
        <r>  0.0000  0.0027  0.0000  0.0000 </r>
        <r>  0.0000  0.0012  0.0000  0.0000 </r>
        <r>  0.0000  0.0012  0.0000  0.0000 </r>
       </set>
       <set comment="band 40">
        <r>  0.0000  0.0000  0.0000  0.9717 </r>
        <r>  0.0000  0.0000  0.0000  0.0000 </r>
        <r>  0.0000  0.0000  0.0000  0.0000 </r>
        <r>  0.0000  0.0000  0.0000  0.0000 </r>
        <r>  0.0000  0.0017  0.0000  0.0000 </r>
        <r>  0.0000  0.0017  0.0000  0.0000 </r>
        <r>  0.0000  0.0017  0.0000  0.0000 </r>
        <r>  0.0000  0.0017  0.0000  0.0000 </r>
        <r>  0.0000  0.0033  0.0000  0.0000 </r>
        <r>  0.0000  0.0033  0.0000  0.0000 </r>
       </set>
       <set comment="band 41">
        <r>  0.0000  0.0012  0.0000  0.9223 </r>
        <r>  0.0000  0.0001  0.0000  0.0000 </r>
        <r>  0.0000  0.0001  0.0000  0.0000 </r>
        <r>  0.0000  0.0003  0.0000  0.0000 </r>
        <r>  0.0000  0.0063  0.0000  0.0000 </r>
        <r>  0.0000  0.0063  0.0000  0.0000 </r>
        <r>  0.0000  0.0063  0.0000  0.0000 </r>
        <r>  0.0000  0.0063  0.0000  0.0000 </r>
        <r>  0.0000  0.0120  0.0000  0.0000 </r>
        <r>  0.0000  0.0120  0.0000  0.0000 </r>
       </set>
       <set comment="band 42">
        <r>  0.0000  0.0012  0.0000  0.9223 </r>
        <r>  0.0000  0.0001  0.0000  0.0000 </r>
        <r>  0.0000  0.0001  0.0000  0.0000 </r>
        <r>  0.0000  0.0003  0.0000  0.0000 </r>
        <r>  0.0000  0.0098  0.0000  0.0000 </r>
        <r>  0.0000  0.0098  0.0000  0.0000 </r>
        <r>  0.0000  0.0098  0.0000  0.0000 </r>
        <r>  0.0000  0.0098  0.0000  0.0000 </r>
        <r>  0.0000  0.0051  0.0000  0.0000 </r>
        <r>  0.0000  0.0051  0.0000  0.0000 </r>
       </set>
       <set comment="band 43">
        <r>  0.0000  0.0012  0.0000  0.9223 </r>
        <r>  0.0000  0.0001  0.0000  0.0000 </r>
        <r>  0.0000  0.0001  0.0000  0.0000 </r>
        <r>  0.0000  0.0003  0.0000  0.0000 </r>
        <r>  0.0000  0.0085  0.0000  0.0000 </r>
        <r>  0.0000  0.0085  0.0000  0.0000 </r>
        <r>  0.0000  0.0085  0.0000  0.0000 </r>
        <r>  0.0000  0.0085  0.0000  0.0000 </r>
        <r>  0.0000  0.0076  0.0000  0.0000 </r>
        <r>  0.0000  0.0076  0.0000  0.0000 </r>
       </set>
       <set comment="band 44">
        <r>  0.0000  0.0000  0.3928  0.0000 </r>
        <r>  0.0000  0.0000  0.0107  0.0000 </r>
        <r>  0.0000  0.0000  0.0107  0.0000 </r>
        <r>  0.0000  0.0000  0.0000  0.0000 </r>
        <r>  0.0000  0.0042  0.0000  0.0000 </r>
        <r>  0.0000  0.0042  0.0000  0.0000 </r>
        <r>  0.0000  0.0043  0.0000  0.0000 </r>
        <r>  0.0000  0.0043  0.0000  0.0000 </r>
        <r>  0.0000  0.0085  0.0000  0.0000 </r>
        <r>  0.0000  0.0085  0.0000  0.0000 </r>
       </set>
       <set comment="band 45">
        <r>  0.0000  0.0000  0.3928  0.0000 </r>
        <r>  0.0000  0.0000  0.0107  0.0000 </r>
        <r>  0.0000  0.0000  0.0107  0.0000 </r>
        <r>  0.0000  0.0000  0.0000  0.0000 </r>
        <r>  0.0000  0.0071  0.0000  0.0000 </r>
        <r>  0.0000  0.0071  0.0000  0.0000 </r>
        <r>  0.0000  0.0071  0.0000  0.0000 </r>
        <r>  0.0000  0.0071  0.0000  0.0000 </r>
        <r>  0.0000  0.0028  0.0000  0.0000 </r>
        <r>  0.0000  0.0028  0.0000  0.0000 </r>
       </set>
       <set comment="band 46">
        <r>  0.0000  0.0000  0.3928  0.0000 </r>
        <r>  0.0000  0.0000  0.0107  0.0000 </r>
        <r>  0.0000  0.0000  0.0107  0.0000 </r>
        <r>  0.0000  0.0000  0.0000  0.0000 </r>
        <r>  0.0000  0.0057  0.0000  0.0000 </r>
        <r>  0.0000  0.0057  0.0000  0.0000 </r>
        <r>  0.0000  0.0057  0.0000  0.0000 </r>
        <r>  0.0000  0.0057  0.0000  0.0000 </r>
        <r>  0.0000  0.0057  0.0000  0.0000 </r>
        <r>  0.0000  0.0057  0.0000  0.0000 </r>
       </set>
       <set comment="band 47">
        <r>  0.0235  0.0000  0.0000  0.0000 </r>
        <r>  0.0253  0.0000  0.0000  0.0000 </r>
        <r>  0.0253  0.0000  0.0000  0.0000 </r>
        <r>  0.0156  0.0000  0.0000  0.0000 </r>
        <r>  0.0194  0.0005  0.0000  0.0000 </r>
        <r>  0.0194  0.0005  0.0000  0.0000 </r>
        <r>  0.0194  0.0005  0.0000  0.0000 </r>
        <r>  0.0194  0.0005  0.0000  0.0000 </r>
        <r>  0.0194  0.0005  0.0000  0.0000 </r>
        <r>  0.0194  0.0005  0.0000  0.0000 </r>
       </set>
       <set comment="band 48">
        <r>  0.0000  0.0000  0.0004  0.0000 </r>
        <r>  0.0000  0.0000  0.0763  0.0000 </r>
        <r>  0.0000  0.0000  0.0763  0.0000 </r>
        <r>  0.0000  0.0000  0.0000  0.0000 </r>
        <r>  0.0042  0.0001  0.0000  0.0000 </r>
        <r>  0.0042  0.0001  0.0000  0.0000 </r>
        <r>  0.0049  0.0001  0.0000  0.0000 </r>
        <r>  0.0049  0.0001  0.0000  0.0000 </r>
        <r>  0.0000  0.0000  0.0000  0.0000 </r>
        <r>  0.0000  0.0000  0.0000  0.0000 </r>
       </set>
       <set comment="band 49">
        <r>  0.0000  0.0000  0.0004  0.0000 </r>
        <r>  0.0000  0.0000  0.0763  0.0000 </r>
        <r>  0.0000  0.0000  0.0763  0.0000 </r>
        <r>  0.0000  0.0000  0.0000  0.0000 </r>
        <r>  0.0019  0.0000  0.0000  0.0000 </r>
        <r>  0.0019  0.0000  0.0000  0.0000 </r>
        <r>  0.0012  0.0000  0.0000  0.0000 </r>
        <r>  0.0012  0.0000  0.0000  0.0000 </r>
        <r>  0.0060  0.0001  0.0000  0.0000 </r>
        <r>  0.0060  0.0001  0.0000  0.0000 </r>
       </set>
       <set comment="band 50">
        <r>  0.0000  0.0156  0.0000  0.0050 </r>
        <r>  0.0000  0.0001  0.0741  0.0000 </r>
        <r>  0.0000  0.0001  0.0741  0.0000 </r>
        <r>  0.0000  0.0064  0.0000  0.0000 </r>
        <r>  0.0130  0.0001  0.0000  0.0000 </r>
        <r>  0.0130  0.0001  0.0000  0.0000 </r>
        <r>  0.0000  0.0001  0.0000  0.0000 </r>
        <r>  0.0000  0.0001  0.0000  0.0000 </r>
        <r>  0.0122  0.0001  0.0000  0.0000 </r>
        <r>  0.0122  0.0001  0.0000  0.0000 </r>
       </set>
       <set comment="band 51">
        <r>  0.0000  0.0156  0.0000  0.0050 </r>
        <r>  0.0000  0.0001  0.0741  0.0000 </r>
        <r>  0.0000  0.0001  0.0741  0.0000 </r>
        <r>  0.0000  0.0064  0.0000  0.0000 </r>
        <r>  0.0116  0.0001  0.0000  0.0000 </r>
        <r>  0.0116  0.0001  0.0000  0.0000 </r>
        <r>  0.0016  0.0001  0.0000  0.0000 </r>
        <r>  0.0016  0.0001  0.0000  0.0000 </r>
        <r>  0.0120  0.0001  0.0000  0.0000 </r>
        <r>  0.0120  0.0001  0.0000  0.0000 </r>
       </set>
      </set>
     </set>
    </set>
   </array>
  </projected>
 </calculation>
 <structure name="finalpos" >
  <crystal>
   <varray name="basis" >
    <v>       0.00000000       5.37150000       5.37150000 </v>
    <v>       5.37150000       0.00000000       5.37150000 </v>
    <v>       5.37150000       5.37150000       0.00000000 </v>
   </varray>
   <i name="volume">    309.96791060 </i>
   <varray name="rec_basis" >
    <v>      -0.09308387       0.09308387       0.09308387 </v>
    <v>       0.09308387      -0.09308387       0.09308387 </v>
    <v>       0.09308387       0.09308387      -0.09308387 </v>
   </varray>
  </crystal>
  <varray name="positions" >
   <v>       0.50000000       0.50000000       0.50000000 </v>
   <v>       0.25000000       0.25000000       0.25000000 </v>
   <v>       0.75000000       0.75000000       0.75000000 </v>
   <v>       0.00000000       0.00000000       0.00000000 </v>
   <v>       0.24643954       0.75356046       0.75356046 </v>
   <v>       0.75356046       0.24643954       0.24643954 </v>
   <v>       0.75356046       0.24643954       0.75356046 </v>
   <v>       0.24643954       0.75356046       0.24643954 </v>
   <v>       0.75356046       0.75356046       0.24643954 </v>
   <v>       0.24643954       0.24643954       0.75356046 </v>
  </varray>
 </structure>
</modeling>
