vasp                                    
            1
     0.000000    5.371500    5.371500
     5.371500    0.000000    5.371500
     5.371500    5.371500    0.000000
   Dy   Cs   Na   Cl
     1     2     1     6
Direct configuration=     1
   0.50000000  0.50000000  0.50000000
   0.25000000  0.25000000  0.25000000
   0.75000000  0.75000000  0.75000000
   0.00000000  0.00000000  0.00000000
   0.24643954  0.75356046  0.75356046
   0.75356046  0.24643954  0.24643954
   0.75356046  0.24643954  0.75356046
   0.24643954  0.75356046  0.24643954
   0.75356046  0.75356046  0.24643954
   0.24643954  0.24643954  0.75356046
